<?xml version="1.0" encoding="UTF-8"?>

<!-- generated on 2020年06月30日 星期二 01时43分17秒 by Eclipse SUMO GUI Version UNKNOWN
<configuration xmlns:xsi="http://www.w3.org/2001/XMLSchema-instance" xsi:noNamespaceSchemaLocation="http://sumo.dlr.de/xsd/sumoConfiguration.xsd">

    <input>
        <net-file value="data/single_intersection.net.xml"/>
        <route-files value="data/cross_9_1_30mins.rou.xml"/>
    </input>

    <output>
        <tripinfo-output value="tripinfo.xml"/>
    </output>

    <time>
        <begin value="0"/>
    </time>

    <processing>
        <lateral-resolution value="0.64"/>
        <waiting-time-memory value="60"/>
    </processing>

    <report>
        <verbose value="true"/>
        <no-step-log value="true"/>
    </report>

    <gui_only>
        <start value="true"/>
    </gui_only>

</configuration>
-->

<tripinfos xmlns:xsi="http://www.w3.org/2001/XMLSchema-instance" xsi:noNamespaceSchemaLocation="http://sumo.dlr.de/xsd/tripinfo_file.xsd">
    <tripinfo id="10" depart="15.00" departLane="54o_0" departPos="5.10" departPosLat="0.00" departSpeed="0.00" departDelay="0.00" arrival="45.00" arrivalLane="51i_2" arrivalPos="10.00" arrivalPosLat="0.00" arrivalSpeed="13.15" duration="30.00" routeLength="233.37" waitingTime="1.00" waitingCount="1" stopTime="0.00" timeLoss="15.15" rerouteNo="0" devices="tripinfo_10" vType="type3" speedFactor="1.09" vaporized=""/>
    <tripinfo id="20" depart="25.00" departLane="54o_0" departPos="5.10" departPosLat="0.00" departSpeed="0.00" departDelay="0.00" arrival="48.00" arrivalLane="51i_2" arrivalPos="10.00" arrivalPosLat="0.00" arrivalSpeed="11.97" duration="23.00" routeLength="233.37" waitingTime="0.00" waitingCount="0" stopTime="0.00" timeLoss="6.76" rerouteNo="0" devices="tripinfo_20" vType="type4" speedFactor="1.02" vaporized=""/>
    <tripinfo id="30" depart="35.00" departLane="54o_0" departPos="7.20" departPosLat="0.00" departSpeed="0.00" departDelay="0.00" arrival="60.00" arrivalLane="51i_2" arrivalPos="10.00" arrivalPosLat="0.00" arrivalSpeed="12.86" duration="25.00" routeLength="231.27" waitingTime="0.00" waitingCount="0" stopTime="0.00" timeLoss="9.96" rerouteNo="0" devices="tripinfo_30" vType="type5" speedFactor="1.09" vaporized=""/>
    <tripinfo id="40" depart="45.00" departLane="54o_0" departPos="10.00" departPosLat="0.00" departSpeed="0.00" departDelay="0.00" arrival="72.00" arrivalLane="51i_2" arrivalPos="10.00" arrivalPosLat="0.00" arrivalSpeed="11.51" duration="27.00" routeLength="228.47" waitingTime="0.00" waitingCount="0" stopTime="0.00" timeLoss="10.87" rerouteNo="0" devices="tripinfo_40" vType="type6" speedFactor="1.00" vaporized=""/>
    <tripinfo id="0" depart="5.00" departLane="51o_0" departPos="2.30" departPosLat="0.00" departSpeed="0.00" departDelay="0.00" arrival="91.00" arrivalLane="54i_0" arrivalPos="10.00" arrivalPosLat="0.00" arrivalSpeed="13.39" duration="86.00" routeLength="220.20" waitingTime="63.00" waitingCount="1" stopTime="0.00" timeLoss="71.25" rerouteNo="0" devices="tripinfo_0" vType="type2" speedFactor="1.06" vaporized=""/>
    <tripinfo id="1" depart="6.00" departLane="51o_0" departPos="2.30" departPosLat="0.00" departSpeed="0.00" departDelay="1.00" arrival="94.00" arrivalLane="54i_0" arrivalPos="10.00" arrivalPosLat="0.00" arrivalSpeed="15.61" duration="88.00" routeLength="220.20" waitingTime="64.00" waitingCount="2" stopTime="0.00" timeLoss="71.01" rerouteNo="0" devices="tripinfo_1" vType="type2" speedFactor="0.94" vaporized=""/>
    <tripinfo id="2" depart="8.00" departLane="51o_0" departPos="2.30" departPosLat="0.00" departSpeed="0.00" departDelay="3.00" arrival="96.00" arrivalLane="54i_0" arrivalPos="10.00" arrivalPosLat="0.00" arrivalSpeed="14.84" duration="88.00" routeLength="220.20" waitingTime="62.00" waitingCount="1" stopTime="0.00" timeLoss="72.07" rerouteNo="0" devices="tripinfo_2" vType="type2" speedFactor="1.01" vaporized=""/>
    <tripinfo id="3" depart="10.00" departLane="51o_0" departPos="2.30" departPosLat="0.00" departSpeed="0.00" departDelay="5.00" arrival="97.00" arrivalLane="54i_0" arrivalPos="10.00" arrivalPosLat="0.00" arrivalSpeed="12.70" duration="87.00" routeLength="220.20" waitingTime="62.00" waitingCount="1" stopTime="0.00" timeLoss="72.71" rerouteNo="0" devices="tripinfo_3" vType="type2" speedFactor="1.08" vaporized=""/>
    <tripinfo id="4" depart="12.00" departLane="51o_0" departPos="2.30" departPosLat="0.00" departSpeed="0.00" departDelay="7.00" arrival="99.00" arrivalLane="54i_0" arrivalPos="10.00" arrivalPosLat="0.00" arrivalSpeed="13.39" duration="87.00" routeLength="220.20" waitingTime="60.00" waitingCount="1" stopTime="0.00" timeLoss="71.77" rerouteNo="0" devices="tripinfo_4" vType="type2" speedFactor="1.03" vaporized=""/>
    <tripinfo id="5" depart="14.00" departLane="51o_0" departPos="2.30" departPosLat="0.00" departSpeed="0.00" departDelay="4.00" arrival="103.00" arrivalLane="54i_0" arrivalPos="10.00" arrivalPosLat="0.00" arrivalSpeed="11.57" duration="89.00" routeLength="220.20" waitingTime="58.00" waitingCount="1" stopTime="0.00" timeLoss="70.14" rerouteNo="0" devices="tripinfo_5" vType="type2" speedFactor="0.83" vaporized=""/>
    <tripinfo id="50" depart="55.00" departLane="54o_0" departPos="1.70" departPosLat="0.00" departSpeed="0.00" departDelay="0.00" arrival="103.00" arrivalLane="51i_0" arrivalPos="10.00" arrivalPosLat="0.00" arrivalSpeed="5.02" duration="48.00" routeLength="236.77" waitingTime="0.00" waitingCount="0" stopTime="0.00" timeLoss="4.54" rerouteNo="0" devices="tripinfo_50" vType="type1" speedFactor="1.03" vaporized=""/>
    <tripinfo id="6" depart="16.00" departLane="51o_0" departPos="2.30" departPosLat="0.00" departSpeed="0.00" departDelay="6.00" arrival="105.00" arrivalLane="54i_0" arrivalPos="10.00" arrivalPosLat="0.00" arrivalSpeed="13.41" duration="89.00" routeLength="220.20" waitingTime="57.00" waitingCount="1" stopTime="0.00" timeLoss="73.58" rerouteNo="0" devices="tripinfo_6" vType="type2" speedFactor="1.05" vaporized=""/>
    <tripinfo id="7" depart="18.00" departLane="51o_0" departPos="2.30" departPosLat="0.00" departSpeed="0.00" departDelay="8.00" arrival="106.00" arrivalLane="54i_0" arrivalPos="10.00" arrivalPosLat="0.00" arrivalSpeed="11.46" duration="88.00" routeLength="220.20" waitingTime="56.00" waitingCount="1" stopTime="0.00" timeLoss="70.61" rerouteNo="0" devices="tripinfo_7" vType="type2" speedFactor="0.89" vaporized=""/>
    <tripinfo id="8" depart="20.00" departLane="51o_0" departPos="2.30" departPosLat="0.00" departSpeed="0.00" departDelay="10.00" arrival="108.00" arrivalLane="54i_0" arrivalPos="10.00" arrivalPosLat="0.00" arrivalSpeed="10.58" duration="88.00" routeLength="220.20" waitingTime="55.00" waitingCount="1" stopTime="0.00" timeLoss="71.33" rerouteNo="0" devices="tripinfo_8" vType="type2" speedFactor="0.94" vaporized=""/>
    <tripinfo id="60" depart="65.00" departLane="54o_0" departPos="2.30" departPosLat="0.00" departSpeed="0.00" departDelay="0.00" arrival="395.00" arrivalLane="51i_0" arrivalPos="10.00" arrivalPosLat="0.00" arrivalSpeed="13.54" duration="330.00" routeLength="215.20" waitingTime="301.00" waitingCount="1" stopTime="0.00" timeLoss="312.69" rerouteNo="0" devices="tripinfo_60" vType="type2" speedFactor="0.85" vaporized=""/>
    <tripinfo id="9" depart="21.00" departLane="51o_0" departPos="2.30" departPosLat="0.00" departSpeed="0.00" departDelay="11.00" arrival="411.00" arrivalLane="54i_0" arrivalPos="10.00" arrivalPosLat="0.00" arrivalSpeed="14.87" duration="390.00" routeLength="215.20" waitingTime="356.00" waitingCount="2" stopTime="0.00" timeLoss="372.37" rerouteNo="0" devices="tripinfo_9" vType="type2" speedFactor="0.86" vaporized=""/>
    <tripinfo id="280" depart="285.00" departLane="54o_0" departPos="10.00" departPosLat="0.00" departSpeed="0.00" departDelay="0.00" arrival="605.00" arrivalLane="51i_0" arrivalPos="10.00" arrivalPosLat="0.00" arrivalSpeed="12.01" duration="320.00" routeLength="207.50" waitingTime="301.00" waitingCount="1" stopTime="0.00" timeLoss="310.03" rerouteNo="0" devices="tripinfo_280" vType="type6" speedFactor="1.00" vaporized=""/>
    <tripinfo id="300" depart="305.00" departLane="54o_0" departPos="2.30" departPosLat="0.00" departSpeed="0.00" departDelay="0.00" arrival="623.00" arrivalLane="51i_0" arrivalPos="10.00" arrivalPosLat="0.00" arrivalSpeed="15.42" duration="318.00" routeLength="215.20" waitingTime="301.00" waitingCount="1" stopTime="0.00" timeLoss="306.18" rerouteNo="0" devices="tripinfo_300" vType="type2" speedFactor="0.93" vaporized=""/>
    <tripinfo id="310" depart="315.00" departLane="54o_0" departPos="5.10" departPosLat="0.00" departSpeed="0.00" departDelay="0.00" arrival="635.00" arrivalLane="51i_1" arrivalPos="10.00" arrivalPosLat="0.00" arrivalSpeed="10.70" duration="320.00" routeLength="212.40" waitingTime="301.00" waitingCount="1" stopTime="0.00" timeLoss="306.06" rerouteNo="0" devices="tripinfo_310" vType="type3" speedFactor="0.75" vaporized=""/>
    <tripinfo id="320" depart="325.00" departLane="54o_0" departPos="5.10" departPosLat="0.00" departSpeed="0.00" departDelay="0.00" arrival="642.00" arrivalLane="51i_0" arrivalPos="10.00" arrivalPosLat="0.00" arrivalSpeed="11.35" duration="317.00" routeLength="212.40" waitingTime="301.00" waitingCount="1" stopTime="0.00" timeLoss="306.52" rerouteNo="0" devices="tripinfo_320" vType="type4" speedFactor="0.97" vaporized=""/>
    <tripinfo id="220" depart="225.00" departLane="54o_0" departPos="10.00" departPosLat="0.00" departSpeed="0.00" departDelay="0.00" arrival="697.00" arrivalLane="51i_0" arrivalPos="10.00" arrivalPosLat="0.00" arrivalSpeed="11.81" duration="472.00" routeLength="207.50" waitingTime="455.00" waitingCount="1" stopTime="0.00" timeLoss="464.54" rerouteNo="0" devices="tripinfo_220" vType="type6" speedFactor="1.00" vaporized=""/>
    <tripinfo id="180" depart="185.00" departLane="54o_0" departPos="2.30" departPosLat="0.00" departSpeed="0.00" departDelay="0.00" arrival="700.00" arrivalLane="51i_0" arrivalPos="10.00" arrivalPosLat="0.00" arrivalSpeed="12.18" duration="515.00" routeLength="215.20" waitingTime="490.00" waitingCount="3" stopTime="0.00" timeLoss="500.32" rerouteNo="0" devices="tripinfo_180" vType="type2" speedFactor="0.96" vaporized=""/>
    <tripinfo id="190" depart="195.00" departLane="54o_0" departPos="5.10" departPosLat="0.00" departSpeed="0.00" departDelay="0.00" arrival="701.00" arrivalLane="51i_1" arrivalPos="10.00" arrivalPosLat="0.00" arrivalSpeed="10.47" duration="506.00" routeLength="212.40" waitingTime="485.00" waitingCount="1" stopTime="0.00" timeLoss="491.71" rerouteNo="0" devices="tripinfo_190" vType="type3" speedFactor="0.88" vaporized=""/>
    <tripinfo id="200" depart="205.00" departLane="54o_0" departPos="5.10" departPosLat="0.00" departSpeed="0.00" departDelay="0.00" arrival="702.00" arrivalLane="51i_0" arrivalPos="10.00" arrivalPosLat="0.00" arrivalSpeed="12.27" duration="497.00" routeLength="212.40" waitingTime="476.00" waitingCount="1" stopTime="0.00" timeLoss="486.16" rerouteNo="0" devices="tripinfo_200" vType="type4" speedFactor="1.09" vaporized=""/>
    <tripinfo id="70" depart="75.00" departLane="54o_0" departPos="5.10" departPosLat="0.00" departSpeed="0.00" departDelay="0.00" arrival="703.00" arrivalLane="51i_1" arrivalPos="10.00" arrivalPosLat="0.00" arrivalSpeed="13.41" duration="628.00" routeLength="212.40" waitingTime="600.00" waitingCount="2" stopTime="0.00" timeLoss="614.43" rerouteNo="0" devices="tripinfo_70" vType="type3" speedFactor="1.08" vaporized=""/>
    <tripinfo id="170" depart="175.00" departLane="54o_0" departPos="1.70" departPosLat="0.00" departSpeed="0.00" departDelay="0.00" arrival="711.00" arrivalLane="51i_0" arrivalPos="10.00" arrivalPosLat="0.00" arrivalSpeed="5.42" duration="536.00" routeLength="215.80" waitingTime="489.00" waitingCount="2" stopTime="0.00" timeLoss="496.95" rerouteNo="0" devices="tripinfo_170" vType="type1" speedFactor="1.11" vaporized=""/>
    <tripinfo id="11" depart="24.00" departLane="51o_0" departPos="5.10" departPosLat="0.00" departSpeed="0.00" departDelay="9.00" arrival="713.00" arrivalLane="54i_0" arrivalPos="10.00" arrivalPosLat="0.00" arrivalSpeed="12.93" duration="689.00" routeLength="212.40" waitingTime="655.00" waitingCount="3" stopTime="0.00" timeLoss="675.21" rerouteNo="0" devices="tripinfo_11" vType="type3" speedFactor="1.03" vaporized=""/>
    <tripinfo id="80" depart="85.00" departLane="54o_0" departPos="5.10" departPosLat="0.00" departSpeed="0.00" departDelay="0.00" arrival="726.00" arrivalLane="51i_2" arrivalPos="10.00" arrivalPosLat="0.00" arrivalSpeed="12.29" duration="641.00" routeLength="233.37" waitingTime="605.00" waitingCount="3" stopTime="0.00" timeLoss="625.17" rerouteNo="0" devices="tripinfo_80" vType="type4" speedFactor="1.02" vaporized=""/>
    <tripinfo id="90" depart="95.00" departLane="54o_0" departPos="7.20" departPosLat="0.00" departSpeed="0.00" departDelay="0.00" arrival="730.00" arrivalLane="51i_2" arrivalPos="10.00" arrivalPosLat="0.00" arrivalSpeed="11.71" duration="635.00" routeLength="231.27" waitingTime="593.00" waitingCount="5" stopTime="0.00" timeLoss="619.21" rerouteNo="0" devices="tripinfo_90" vType="type5" speedFactor="1.02" vaporized=""/>
    <tripinfo id="100" depart="105.00" departLane="54o_0" departPos="10.00" departPosLat="0.00" departSpeed="0.00" departDelay="0.00" arrival="732.00" arrivalLane="51i_2" arrivalPos="10.00" arrivalPosLat="0.00" arrivalSpeed="10.89" duration="627.00" routeLength="228.47" waitingTime="579.00" waitingCount="4" stopTime="0.00" timeLoss="611.02" rerouteNo="0" devices="tripinfo_100" vType="type6" speedFactor="1.00" vaporized=""/>
    <tripinfo id="250" depart="255.00" departLane="54o_0" departPos="5.10" departPosLat="0.00" departSpeed="0.00" departDelay="0.00" arrival="734.00" arrivalLane="51i_0" arrivalPos="10.00" arrivalPosLat="0.00" arrivalSpeed="12.01" duration="479.00" routeLength="212.40" waitingTime="463.00" waitingCount="1" stopTime="0.00" timeLoss="469.44" rerouteNo="0" devices="tripinfo_250" vType="type3" speedFactor="1.10" vaporized=""/>
    <tripinfo id="260" depart="265.00" departLane="54o_0" departPos="5.10" departPosLat="0.00" departSpeed="0.00" departDelay="0.00" arrival="736.00" arrivalLane="51i_1" arrivalPos="10.00" arrivalPosLat="0.00" arrivalSpeed="10.50" duration="471.00" routeLength="212.40" waitingTime="456.00" waitingCount="1" stopTime="0.00" timeLoss="460.69" rerouteNo="0" devices="tripinfo_260" vType="type4" speedFactor="1.00" vaporized=""/>
    <tripinfo id="120" depart="125.00" departLane="54o_0" departPos="2.30" departPosLat="0.00" departSpeed="0.00" departDelay="0.00" arrival="741.00" arrivalLane="51i_2" arrivalPos="10.00" arrivalPosLat="0.00" arrivalSpeed="15.38" duration="616.00" routeLength="236.17" waitingTime="567.00" waitingCount="2" stopTime="0.00" timeLoss="600.26" rerouteNo="0" devices="tripinfo_120" vType="type2" speedFactor="1.07" vaporized=""/>
    <tripinfo id="130" depart="135.00" departLane="54o_0" departPos="5.10" departPosLat="0.00" departSpeed="0.00" departDelay="0.00" arrival="744.00" arrivalLane="51i_2" arrivalPos="10.00" arrivalPosLat="0.00" arrivalSpeed="11.47" duration="609.00" routeLength="233.37" waitingTime="557.00" waitingCount="2" stopTime="0.00" timeLoss="591.04" rerouteNo="0" devices="tripinfo_130" vType="type3" speedFactor="0.93" vaporized=""/>
    <tripinfo id="140" depart="145.00" departLane="54o_0" departPos="5.10" departPosLat="0.00" departSpeed="0.00" departDelay="0.00" arrival="746.00" arrivalLane="51i_2" arrivalPos="10.00" arrivalPosLat="0.00" arrivalSpeed="11.88" duration="601.00" routeLength="233.37" waitingTime="549.00" waitingCount="2" stopTime="0.00" timeLoss="583.55" rerouteNo="0" devices="tripinfo_140" vType="type4" speedFactor="0.94" vaporized=""/>
    <tripinfo id="110" depart="115.00" departLane="54o_0" departPos="1.70" departPosLat="0.00" departSpeed="0.00" departDelay="0.00" arrival="747.00" arrivalLane="51i_0" arrivalPos="10.00" arrivalPosLat="0.00" arrivalSpeed="5.48" duration="632.00" routeLength="236.77" waitingTime="571.00" waitingCount="2" stopTime="0.00" timeLoss="589.30" rerouteNo="0" devices="tripinfo_110" vType="type1" speedFactor="1.02" vaporized=""/>
    <tripinfo id="340" depart="639.00" departLane="54o_0" departPos="10.00" departPosLat="0.00" departSpeed="0.00" departDelay="294.00" arrival="748.00" arrivalLane="51i_2" arrivalPos="10.00" arrivalPosLat="0.00" arrivalSpeed="11.34" duration="109.00" routeLength="228.47" waitingTime="66.00" waitingCount="4" stopTime="0.00" timeLoss="92.88" rerouteNo="0" devices="tripinfo_340" vType="type6" speedFactor="1.00" vaporized=""/>
    <tripinfo id="360" depart="644.00" departLane="54o_0" departPos="2.30" departPosLat="0.00" departSpeed="0.00" departDelay="279.00" arrival="751.00" arrivalLane="51i_2" arrivalPos="10.00" arrivalPosLat="0.00" arrivalSpeed="13.32" duration="107.00" routeLength="236.17" waitingTime="75.00" waitingCount="1" stopTime="0.00" timeLoss="91.10" rerouteNo="0" devices="tripinfo_360" vType="type2" speedFactor="1.07" vaporized=""/>
    <tripinfo id="12" depart="27.00" departLane="51o_0" departPos="5.10" departPosLat="0.00" departSpeed="0.00" departDelay="12.00" arrival="757.00" arrivalLane="54i_0" arrivalPos="10.00" arrivalPosLat="0.00" arrivalSpeed="12.46" duration="730.00" routeLength="217.40" waitingTime="686.00" waitingCount="4" stopTime="0.00" timeLoss="715.01" rerouteNo="0" devices="tripinfo_12" vType="type3" speedFactor="1.05" vaporized=""/>
    <tripinfo id="13" depart="30.00" departLane="51o_0" departPos="5.10" departPosLat="0.00" departSpeed="0.00" departDelay="15.00" arrival="758.00" arrivalLane="54i_0" arrivalPos="10.00" arrivalPosLat="0.00" arrivalSpeed="12.23" duration="728.00" routeLength="217.40" waitingTime="684.00" waitingCount="4" stopTime="0.00" timeLoss="714.35" rerouteNo="0" devices="tripinfo_13" vType="type3" speedFactor="1.12" vaporized=""/>
    <tripinfo id="330" depart="335.00" departLane="54o_0" departPos="7.20" departPosLat="0.00" departSpeed="0.00" departDelay="0.00" arrival="759.00" arrivalLane="51i_2" arrivalPos="10.00" arrivalPosLat="0.00" arrivalSpeed="11.43" duration="424.00" routeLength="231.17" waitingTime="301.00" waitingCount="1" stopTime="0.00" timeLoss="315.63" rerouteNo="0" devices="tripinfo_330" vType="type5" speedFactor="1.00" vaporized=""/>
    <tripinfo id="14" depart="33.00" departLane="51o_0" departPos="5.10" departPosLat="0.00" departSpeed="0.00" departDelay="18.00" arrival="761.00" arrivalLane="54i_0" arrivalPos="10.00" arrivalPosLat="0.00" arrivalSpeed="12.67" duration="728.00" routeLength="217.40" waitingTime="679.00" waitingCount="4" stopTime="0.00" timeLoss="712.57" rerouteNo="0" devices="tripinfo_14" vType="type3" speedFactor="0.99" vaporized=""/>
    <tripinfo id="15" depart="36.00" departLane="51o_0" departPos="5.10" departPosLat="0.00" departSpeed="0.00" departDelay="16.00" arrival="764.00" arrivalLane="54i_0" arrivalPos="10.00" arrivalPosLat="0.00" arrivalSpeed="11.66" duration="728.00" routeLength="217.40" waitingTime="675.00" waitingCount="4" stopTime="0.00" timeLoss="711.20" rerouteNo="0" devices="tripinfo_15" vType="type3" speedFactor="0.93" vaporized=""/>
    <tripinfo id="230" depart="235.00" departLane="54o_0" departPos="1.70" departPosLat="0.00" departSpeed="0.00" departDelay="0.00" arrival="764.00" arrivalLane="51i_0" arrivalPos="10.00" arrivalPosLat="0.00" arrivalSpeed="5.42" duration="529.00" routeLength="236.77" waitingTime="468.00" waitingCount="3" stopTime="0.00" timeLoss="486.01" rerouteNo="0" devices="tripinfo_230" vType="type1" speedFactor="0.90" vaporized=""/>
    <tripinfo id="16" depart="39.00" departLane="51o_0" departPos="5.10" departPosLat="0.00" departSpeed="0.00" departDelay="19.00" arrival="767.00" arrivalLane="54i_0" arrivalPos="10.00" arrivalPosLat="0.00" arrivalSpeed="11.28" duration="728.00" routeLength="217.40" waitingTime="674.00" waitingCount="4" stopTime="0.00" timeLoss="710.10" rerouteNo="0" devices="tripinfo_16" vType="type3" speedFactor="0.88" vaporized=""/>
    <tripinfo id="17" depart="42.00" departLane="51o_0" departPos="5.10" departPosLat="0.00" departSpeed="0.00" departDelay="22.00" arrival="768.00" arrivalLane="54i_0" arrivalPos="10.00" arrivalPosLat="0.00" arrivalSpeed="11.41" duration="726.00" routeLength="217.40" waitingTime="671.00" waitingCount="5" stopTime="0.00" timeLoss="709.85" rerouteNo="0" devices="tripinfo_17" vType="type3" speedFactor="0.94" vaporized=""/>
    <tripinfo id="18" depart="45.00" departLane="51o_0" departPos="5.10" departPosLat="0.00" departSpeed="0.00" departDelay="25.00" arrival="770.00" arrivalLane="54i_0" arrivalPos="10.00" arrivalPosLat="0.00" arrivalSpeed="11.50" duration="725.00" routeLength="217.40" waitingTime="672.00" waitingCount="5" stopTime="0.00" timeLoss="708.93" rerouteNo="0" devices="tripinfo_18" vType="type3" speedFactor="0.94" vaporized=""/>
    <tripinfo id="19" depart="101.00" departLane="51o_0" departPos="5.10" departPosLat="0.00" departSpeed="0.00" departDelay="81.00" arrival="772.00" arrivalLane="54i_0" arrivalPos="10.00" arrivalPosLat="0.00" arrivalSpeed="13.87" duration="671.00" routeLength="217.40" waitingTime="623.00" waitingCount="3" stopTime="0.00" timeLoss="657.75" rerouteNo="0" devices="tripinfo_19" vType="type3" speedFactor="1.16" vaporized=""/>
    <tripinfo id="21" depart="104.00" departLane="51o_0" departPos="5.10" departPosLat="0.00" departSpeed="0.00" departDelay="79.00" arrival="774.00" arrivalLane="54i_0" arrivalPos="10.00" arrivalPosLat="0.00" arrivalSpeed="12.58" duration="670.00" routeLength="217.40" waitingTime="622.00" waitingCount="3" stopTime="0.00" timeLoss="654.84" rerouteNo="0" devices="tripinfo_21" vType="type4" speedFactor="1.01" vaporized=""/>
    <tripinfo id="22" depart="107.00" departLane="51o_0" departPos="5.10" departPosLat="0.00" departSpeed="0.00" departDelay="82.00" arrival="776.00" arrivalLane="54i_0" arrivalPos="10.00" arrivalPosLat="0.00" arrivalSpeed="11.88" duration="669.00" routeLength="217.40" waitingTime="622.00" waitingCount="3" stopTime="0.00" timeLoss="653.29" rerouteNo="0" devices="tripinfo_22" vType="type4" speedFactor="0.98" vaporized=""/>
    <tripinfo id="23" depart="110.00" departLane="51o_0" departPos="5.10" departPosLat="0.00" departSpeed="0.00" departDelay="85.00" arrival="779.00" arrivalLane="54i_0" arrivalPos="10.00" arrivalPosLat="0.00" arrivalSpeed="11.89" duration="669.00" routeLength="217.40" waitingTime="620.00" waitingCount="3" stopTime="0.00" timeLoss="651.38" rerouteNo="0" devices="tripinfo_23" vType="type4" speedFactor="0.89" vaporized=""/>
    <tripinfo id="370" depart="646.00" departLane="54o_0" departPos="5.10" departPosLat="0.00" departSpeed="0.00" departDelay="271.00" arrival="1057.00" arrivalLane="51i_0" arrivalPos="10.00" arrivalPosLat="0.00" arrivalSpeed="10.70" duration="411.00" routeLength="212.40" waitingTime="377.00" waitingCount="3" stopTime="0.00" timeLoss="395.45" rerouteNo="0" devices="tripinfo_370" vType="type3" speedFactor="0.90" vaporized=""/>
    <tripinfo id="420" depart="741.00" departLane="54o_0" departPos="2.30" departPosLat="0.00" departSpeed="0.00" departDelay="316.00" arrival="1063.00" arrivalLane="51i_1" arrivalPos="10.00" arrivalPosLat="0.00" arrivalSpeed="13.98" duration="322.00" routeLength="215.20" waitingTime="301.00" waitingCount="1" stopTime="0.00" timeLoss="309.73" rerouteNo="0" devices="tripinfo_420" vType="type2" speedFactor="1.02" vaporized=""/>
    <tripinfo id="500" depart="764.00" departLane="54o_0" departPos="5.10" departPosLat="0.00" departSpeed="0.00" departDelay="259.00" arrival="1082.00" arrivalLane="51i_0" arrivalPos="10.00" arrivalPosLat="0.00" arrivalSpeed="10.93" duration="318.00" routeLength="212.40" waitingTime="301.00" waitingCount="1" stopTime="0.00" timeLoss="307.32" rerouteNo="0" devices="tripinfo_500" vType="type4" speedFactor="0.94" vaporized=""/>
    <tripinfo id="24" depart="113.00" departLane="51o_0" departPos="5.10" departPosLat="0.00" departSpeed="0.00" departDelay="88.00" arrival="1083.00" arrivalLane="54i_0" arrivalPos="10.00" arrivalPosLat="0.00" arrivalSpeed="11.53" duration="970.00" routeLength="212.40" waitingTime="920.00" waitingCount="5" stopTime="0.00" timeLoss="952.89" rerouteNo="0" devices="tripinfo_24" vType="type4" speedFactor="0.83" vaporized=""/>
    <tripinfo id="380" depart="649.00" departLane="54o_0" departPos="5.10" departPosLat="0.00" departSpeed="0.00" departDelay="264.00" arrival="1101.00" arrivalLane="51i_2" arrivalPos="10.00" arrivalPosLat="0.00" arrivalSpeed="14.62" duration="452.00" routeLength="233.37" waitingTime="407.00" waitingCount="4" stopTime="0.00" timeLoss="437.74" rerouteNo="0" devices="tripinfo_380" vType="type4" speedFactor="1.16" vaporized=""/>
    <tripinfo id="150" depart="155.00" departLane="54o_0" departPos="7.20" departPosLat="0.00" departSpeed="0.00" departDelay="0.00" arrival="1105.00" arrivalLane="51i_2" arrivalPos="10.00" arrivalPosLat="0.00" arrivalSpeed="11.14" duration="950.00" routeLength="231.27" waitingTime="890.00" waitingCount="9" stopTime="0.00" timeLoss="933.96" rerouteNo="0" devices="tripinfo_150" vType="type5" speedFactor="1.02" vaporized=""/>
    <tripinfo id="460" depart="752.00" departLane="54o_0" departPos="10.00" departPosLat="0.00" departSpeed="0.00" departDelay="287.00" arrival="1106.00" arrivalLane="51i_0" arrivalPos="10.00" arrivalPosLat="0.00" arrivalSpeed="10.85" duration="354.00" routeLength="207.50" waitingTime="335.00" waitingCount="1" stopTime="0.00" timeLoss="343.98" rerouteNo="0" devices="tripinfo_460" vType="type6" speedFactor="1.00" vaporized=""/>
    <tripinfo id="240" depart="245.00" departLane="54o_0" departPos="2.30" departPosLat="0.00" departSpeed="0.00" departDelay="0.00" arrival="1109.00" arrivalLane="51i_2" arrivalPos="10.00" arrivalPosLat="0.00" arrivalSpeed="13.59" duration="864.00" routeLength="236.17" waitingTime="806.00" waitingCount="5" stopTime="0.00" timeLoss="846.38" rerouteNo="0" devices="tripinfo_240" vType="type2" speedFactor="0.95" vaporized=""/>
    <tripinfo id="400" depart="736.00" departLane="54o_0" departPos="10.00" departPosLat="0.00" departSpeed="0.00" departDelay="331.00" arrival="1111.00" arrivalLane="51i_2" arrivalPos="10.00" arrivalPosLat="0.00" arrivalSpeed="10.61" duration="375.00" routeLength="228.47" waitingTime="329.00" waitingCount="4" stopTime="0.00" timeLoss="358.95" rerouteNo="0" devices="tripinfo_400" vType="type6" speedFactor="1.00" vaporized=""/>
    <tripinfo id="160" depart="165.00" departLane="54o_0" departPos="10.00" departPosLat="0.00" departSpeed="0.00" departDelay="0.00" arrival="1114.00" arrivalLane="51i_2" arrivalPos="10.00" arrivalPosLat="0.00" arrivalSpeed="11.40" duration="949.00" routeLength="228.47" waitingTime="881.00" waitingCount="8" stopTime="0.00" timeLoss="932.78" rerouteNo="0" devices="tripinfo_160" vType="type6" speedFactor="1.00" vaporized=""/>
    <tripinfo id="490" depart="761.00" departLane="54o_0" departPos="5.10" departPosLat="0.00" departSpeed="0.00" departDelay="266.00" arrival="1116.00" arrivalLane="51i_0" arrivalPos="10.00" arrivalPosLat="0.00" arrivalSpeed="14.21" duration="355.00" routeLength="212.40" waitingTime="337.00" waitingCount="1" stopTime="0.00" timeLoss="345.38" rerouteNo="0" devices="tripinfo_490" vType="type3" speedFactor="1.10" vaporized=""/>
    <tripinfo id="25" depart="413.00" departLane="51o_0" departPos="5.10" departPosLat="0.00" departSpeed="0.00" departDelay="383.00" arrival="1118.00" arrivalLane="54i_0" arrivalPos="10.00" arrivalPosLat="0.00" arrivalSpeed="10.78" duration="705.00" routeLength="217.40" waitingTime="657.00" waitingCount="4" stopTime="0.00" timeLoss="687.44" rerouteNo="0" devices="tripinfo_25" vType="type4" speedFactor="0.87" vaporized=""/>
    <tripinfo id="26" depart="719.00" departLane="51o_0" departPos="5.10" departPosLat="0.00" departSpeed="0.00" departDelay="689.00" arrival="1120.00" arrivalLane="54i_0" arrivalPos="10.00" arrivalPosLat="0.00" arrivalSpeed="11.60" duration="401.00" routeLength="217.40" waitingTime="361.00" waitingCount="4" stopTime="0.00" timeLoss="384.20" rerouteNo="0" devices="tripinfo_26" vType="type4" speedFactor="0.92" vaporized=""/>
    <tripinfo id="27" depart="760.00" departLane="51o_0" departPos="5.10" departPosLat="0.00" departSpeed="0.00" departDelay="730.00" arrival="1122.00" arrivalLane="54i_0" arrivalPos="10.00" arrivalPosLat="0.00" arrivalSpeed="12.04" duration="362.00" routeLength="217.40" waitingTime="324.00" waitingCount="2" stopTime="0.00" timeLoss="345.66" rerouteNo="0" devices="tripinfo_27" vType="type4" speedFactor="0.95" vaporized=""/>
    <tripinfo id="28" depart="764.00" departLane="51o_0" departPos="5.10" departPosLat="0.00" departSpeed="0.00" departDelay="734.00" arrival="1124.00" arrivalLane="54i_0" arrivalPos="10.00" arrivalPosLat="0.00" arrivalSpeed="14.54" duration="360.00" routeLength="217.40" waitingTime="324.00" waitingCount="2" stopTime="0.00" timeLoss="346.14" rerouteNo="0" devices="tripinfo_28" vType="type4" speedFactor="1.13" vaporized=""/>
    <tripinfo id="29" depart="767.00" departLane="51o_0" departPos="5.10" departPosLat="0.00" departSpeed="0.00" departDelay="737.00" arrival="1126.00" arrivalLane="54i_0" arrivalPos="10.00" arrivalPosLat="0.00" arrivalSpeed="11.90" duration="359.00" routeLength="217.40" waitingTime="323.00" waitingCount="2" stopTime="0.00" timeLoss="342.56" rerouteNo="0" devices="tripinfo_29" vType="type4" speedFactor="0.93" vaporized=""/>
    <tripinfo id="31" depart="770.00" departLane="51o_0" departPos="7.20" departPosLat="0.00" departSpeed="0.00" departDelay="735.00" arrival="1128.00" arrivalLane="54i_0" arrivalPos="10.00" arrivalPosLat="0.00" arrivalSpeed="12.25" duration="358.00" routeLength="215.30" waitingTime="318.00" waitingCount="2" stopTime="0.00" timeLoss="343.77" rerouteNo="0" devices="tripinfo_31" vType="type5" speedFactor="1.08" vaporized=""/>