<?xml version="1.0" encoding="UTF-8"?>

<!-- generated on 2020年06月30日 星期二 00时34分25秒 by Eclipse SUMO GUI Version UNKNOWN
<configuration xmlns:xsi="http://www.w3.org/2001/XMLSchema-instance" xsi:noNamespaceSchemaLocation="http://sumo.dlr.de/xsd/sumoConfiguration.xsd">

    <input>
        <net-file value="data/single_intersection.net.xml"/>
        <route-files value="data/cross_9_1_30mins.rou.xml"/>
    </input>

    <output>
        <tripinfo-output value="tripinfo.xml"/>
    </output>

    <time>
        <begin value="0"/>
    </time>

    <processing>
        <lateral-resolution value="0.64"/>
        <waiting-time-memory value="60"/>
    </processing>

    <report>
        <verbose value="true"/>
        <no-step-log value="true"/>
    </report>

    <gui_only>
        <start value="true"/>
    </gui_only>

</configuration>
-->

<tripinfos xmlns:xsi="http://www.w3.org/2001/XMLSchema-instance" xsi:noNamespaceSchemaLocation="http://sumo.dlr.de/xsd/tripinfo_file.xsd">
    <tripinfo id="0" depart="5.00" departLane="51o_0" departPos="2.30" departPosLat="0.00" departSpeed="0.00" departDelay="0.00" arrival="35.00" arrivalLane="54i_0" arrivalPos="10.00" arrivalPosLat="0.00" arrivalSpeed="13.39" duration="30.00" routeLength="220.20" waitingTime="7.00" waitingCount="1" stopTime="0.00" timeLoss="15.44" rerouteNo="0" devices="tripinfo_0" vType="type2" speedFactor="1.06" vaporized=""/>
    <tripinfo id="1" depart="6.00" departLane="51o_0" departPos="2.30" departPosLat="0.00" departSpeed="0.00" departDelay="1.00" arrival="39.00" arrivalLane="54i_0" arrivalPos="10.00" arrivalPosLat="0.00" arrivalSpeed="14.12" duration="33.00" routeLength="220.20" waitingTime="8.00" waitingCount="2" stopTime="0.00" timeLoss="15.70" rerouteNo="0" devices="tripinfo_1" vType="type2" speedFactor="0.94" vaporized=""/>
    <tripinfo id="2" depart="8.00" departLane="51o_0" departPos="2.30" departPosLat="0.00" departSpeed="0.00" departDelay="3.00" arrival="40.00" arrivalLane="54i_0" arrivalPos="10.00" arrivalPosLat="0.00" arrivalSpeed="14.00" duration="32.00" routeLength="220.20" waitingTime="6.00" waitingCount="1" stopTime="0.00" timeLoss="16.59" rerouteNo="0" devices="tripinfo_2" vType="type2" speedFactor="1.01" vaporized=""/>
    <tripinfo id="3" depart="10.00" departLane="51o_0" departPos="2.30" departPosLat="0.00" departSpeed="0.00" departDelay="5.00" arrival="42.00" arrivalLane="54i_0" arrivalPos="10.00" arrivalPosLat="0.00" arrivalSpeed="14.57" duration="32.00" routeLength="220.20" waitingTime="6.00" waitingCount="1" stopTime="0.00" timeLoss="17.07" rerouteNo="0" devices="tripinfo_3" vType="type2" speedFactor="1.08" vaporized=""/>
    <tripinfo id="4" depart="12.00" departLane="51o_0" departPos="2.30" departPosLat="0.00" departSpeed="0.00" departDelay="7.00" arrival="43.00" arrivalLane="54i_0" arrivalPos="10.00" arrivalPosLat="0.00" arrivalSpeed="14.08" duration="31.00" routeLength="220.20" waitingTime="4.00" waitingCount="1" stopTime="0.00" timeLoss="16.03" rerouteNo="0" devices="tripinfo_4" vType="type2" speedFactor="1.03" vaporized=""/>
    <tripinfo id="10" depart="15.00" departLane="54o_0" departPos="5.10" departPosLat="0.00" departSpeed="0.00" departDelay="0.00" arrival="61.00" arrivalLane="51i_2" arrivalPos="10.00" arrivalPosLat="0.00" arrivalSpeed="13.10" duration="46.00" routeLength="233.37" waitingTime="17.00" waitingCount="1" stopTime="0.00" timeLoss="31.10" rerouteNo="0" devices="tripinfo_10" vType="type3" speedFactor="1.09" vaporized=""/>
    <tripinfo id="20" depart="25.00" departLane="54o_0" departPos="5.10" departPosLat="0.00" departSpeed="0.00" departDelay="0.00" arrival="64.00" arrivalLane="51i_2" arrivalPos="10.00" arrivalPosLat="0.00" arrivalSpeed="12.21" duration="39.00" routeLength="233.37" waitingTime="11.00" waitingCount="1" stopTime="0.00" timeLoss="22.28" rerouteNo="0" devices="tripinfo_20" vType="type4" speedFactor="1.02" vaporized=""/>
    <tripinfo id="30" depart="35.00" departLane="54o_0" departPos="7.20" departPosLat="0.00" departSpeed="0.00" departDelay="0.00" arrival="68.00" arrivalLane="51i_2" arrivalPos="10.00" arrivalPosLat="0.00" arrivalSpeed="12.88" duration="33.00" routeLength="231.27" waitingTime="0.00" waitingCount="0" stopTime="0.00" timeLoss="17.87" rerouteNo="0" devices="tripinfo_30" vType="type5" speedFactor="1.09" vaporized=""/>
    <tripinfo id="5" depart="14.00" departLane="51o_0" departPos="2.30" departPosLat="0.00" departSpeed="0.00" departDelay="4.00" arrival="70.00" arrivalLane="54i_0" arrivalPos="10.00" arrivalPosLat="0.00" arrivalSpeed="12.24" duration="56.00" routeLength="220.20" waitingTime="23.00" waitingCount="2" stopTime="0.00" timeLoss="37.00" rerouteNo="0" devices="tripinfo_5" vType="type2" speedFactor="0.83" vaporized=""/>
    <tripinfo id="6" depart="16.00" departLane="51o_0" departPos="2.30" departPosLat="0.00" departSpeed="0.00" departDelay="6.00" arrival="71.00" arrivalLane="54i_0" arrivalPos="10.00" arrivalPosLat="0.00" arrivalSpeed="13.34" duration="55.00" routeLength="220.20" waitingTime="21.00" waitingCount="2" stopTime="0.00" timeLoss="40.31" rerouteNo="0" devices="tripinfo_6" vType="type2" speedFactor="1.05" vaporized=""/>
    <tripinfo id="7" depart="18.00" departLane="51o_0" departPos="2.30" departPosLat="0.00" departSpeed="0.00" departDelay="8.00" arrival="74.00" arrivalLane="54i_0" arrivalPos="10.00" arrivalPosLat="0.00" arrivalSpeed="10.36" duration="56.00" routeLength="220.20" waitingTime="18.00" waitingCount="2" stopTime="0.00" timeLoss="38.14" rerouteNo="0" devices="tripinfo_7" vType="type2" speedFactor="0.89" vaporized=""/>
    <tripinfo id="8" depart="20.00" departLane="51o_0" departPos="2.30" departPosLat="0.00" departSpeed="0.00" departDelay="10.00" arrival="75.00" arrivalLane="54i_0" arrivalPos="10.00" arrivalPosLat="0.00" arrivalSpeed="9.57" duration="55.00" routeLength="220.20" waitingTime="17.00" waitingCount="1" stopTime="0.00" timeLoss="38.68" rerouteNo="0" devices="tripinfo_8" vType="type2" speedFactor="0.94" vaporized=""/>
    <tripinfo id="40" depart="45.00" departLane="54o_0" departPos="10.00" departPosLat="0.00" departSpeed="0.00" departDelay="0.00" arrival="97.00" arrivalLane="51i_2" arrivalPos="10.00" arrivalPosLat="0.00" arrivalSpeed="11.89" duration="52.00" routeLength="228.47" waitingTime="18.00" waitingCount="1" stopTime="0.00" timeLoss="35.97" rerouteNo="0" devices="tripinfo_40" vType="type6" speedFactor="1.00" vaporized=""/>
    <tripinfo id="9" depart="21.00" departLane="51o_0" departPos="2.30" departPosLat="0.00" departSpeed="0.00" departDelay="11.00" arrival="102.00" arrivalLane="54i_0" arrivalPos="10.00" arrivalPosLat="0.00" arrivalSpeed="13.09" duration="81.00" routeLength="220.20" waitingTime="40.00" waitingCount="2" stopTime="0.00" timeLoss="63.12" rerouteNo="0" devices="tripinfo_9" vType="type2" speedFactor="0.86" vaporized=""/>
    <tripinfo id="11" depart="24.00" departLane="51o_0" departPos="5.10" departPosLat="0.00" departSpeed="0.00" departDelay="9.00" arrival="104.00" arrivalLane="54i_0" arrivalPos="10.00" arrivalPosLat="0.00" arrivalSpeed="10.62" duration="80.00" routeLength="217.40" waitingTime="39.00" waitingCount="2" stopTime="0.00" timeLoss="65.34" rerouteNo="0" devices="tripinfo_11" vType="type3" speedFactor="1.03" vaporized=""/>
    <tripinfo id="12" depart="27.00" departLane="51o_0" departPos="5.10" departPosLat="0.00" departSpeed="0.00" departDelay="12.00" arrival="106.00" arrivalLane="54i_0" arrivalPos="10.00" arrivalPosLat="0.00" arrivalSpeed="12.69" duration="79.00" routeLength="217.40" waitingTime="38.00" waitingCount="2" stopTime="0.00" timeLoss="64.45" rerouteNo="0" devices="tripinfo_12" vType="type3" speedFactor="1.05" vaporized=""/>
    <tripinfo id="60" depart="65.00" departLane="54o_0" departPos="2.30" departPosLat="0.00" departSpeed="0.00" departDelay="0.00" arrival="106.00" arrivalLane="51i_2" arrivalPos="10.00" arrivalPosLat="0.00" arrivalSpeed="13.25" duration="41.00" routeLength="236.17" waitingTime="2.00" waitingCount="1" stopTime="0.00" timeLoss="21.59" rerouteNo="0" devices="tripinfo_60" vType="type2" speedFactor="0.85" vaporized=""/>
    <tripinfo id="50" depart="55.00" departLane="54o_0" departPos="1.70" departPosLat="0.00" departSpeed="0.00" departDelay="0.00" arrival="110.00" arrivalLane="51i_0" arrivalPos="10.00" arrivalPosLat="0.00" arrivalSpeed="5.02" duration="55.00" routeLength="236.77" waitingTime="4.00" waitingCount="1" stopTime="0.00" timeLoss="11.89" rerouteNo="0" devices="tripinfo_50" vType="type1" speedFactor="1.03" vaporized=""/>
    <tripinfo id="70" depart="75.00" departLane="54o_0" departPos="5.10" departPosLat="0.00" departSpeed="0.00" departDelay="0.00" arrival="126.00" arrivalLane="51i_2" arrivalPos="10.00" arrivalPosLat="0.00" arrivalSpeed="12.94" duration="51.00" routeLength="233.37" waitingTime="20.00" waitingCount="1" stopTime="0.00" timeLoss="35.45" rerouteNo="0" devices="tripinfo_70" vType="type3" speedFactor="1.08" vaporized=""/>
    <tripinfo id="80" depart="85.00" departLane="54o_0" departPos="5.10" departPosLat="0.00" departSpeed="0.00" departDelay="0.00" arrival="128.00" arrivalLane="51i_2" arrivalPos="10.00" arrivalPosLat="0.00" arrivalSpeed="12.21" duration="43.00" routeLength="233.37" waitingTime="14.00" waitingCount="1" stopTime="0.00" timeLoss="26.98" rerouteNo="0" devices="tripinfo_80" vType="type4" speedFactor="1.02" vaporized=""/>
    <tripinfo id="13" depart="30.00" departLane="51o_0" departPos="5.10" departPosLat="0.00" departSpeed="0.00" departDelay="15.00" arrival="132.00" arrivalLane="54i_0" arrivalPos="10.00" arrivalPosLat="0.00" arrivalSpeed="13.45" duration="102.00" routeLength="217.40" waitingTime="60.00" waitingCount="3" stopTime="0.00" timeLoss="88.08" rerouteNo="0" devices="tripinfo_13" vType="type3" speedFactor="1.12" vaporized=""/>
    <tripinfo id="90" depart="95.00" departLane="54o_0" departPos="7.20" departPosLat="0.00" departSpeed="0.00" departDelay="0.00" arrival="132.00" arrivalLane="51i_2" arrivalPos="10.00" arrivalPosLat="0.00" arrivalSpeed="11.89" duration="37.00" routeLength="231.27" waitingTime="3.00" waitingCount="1" stopTime="0.00" timeLoss="20.86" rerouteNo="0" devices="tripinfo_90" vType="type5" speedFactor="1.02" vaporized=""/>
    <tripinfo id="14" depart="33.00" departLane="51o_0" departPos="5.10" departPosLat="0.00" departSpeed="0.00" departDelay="18.00" arrival="135.00" arrivalLane="54i_0" arrivalPos="10.00" arrivalPosLat="0.00" arrivalSpeed="12.81" duration="102.00" routeLength="217.40" waitingTime="56.00" waitingCount="3" stopTime="0.00" timeLoss="85.89" rerouteNo="0" devices="tripinfo_14" vType="type3" speedFactor="0.99" vaporized=""/>
    <tripinfo id="15" depart="36.00" departLane="51o_0" departPos="5.10" departPosLat="0.00" departSpeed="0.00" departDelay="16.00" arrival="137.00" arrivalLane="54i_0" arrivalPos="10.00" arrivalPosLat="0.00" arrivalSpeed="11.96" duration="101.00" routeLength="217.40" waitingTime="54.00" waitingCount="3" stopTime="0.00" timeLoss="84.37" rerouteNo="0" devices="tripinfo_15" vType="type3" speedFactor="0.93" vaporized=""/>
    <tripinfo id="100" depart="105.00" departLane="54o_0" departPos="10.00" departPosLat="0.00" departSpeed="0.00" departDelay="0.00" arrival="162.00" arrivalLane="51i_2" arrivalPos="10.00" arrivalPosLat="0.00" arrivalSpeed="11.75" duration="57.00" routeLength="228.47" waitingTime="20.00" waitingCount="1" stopTime="0.00" timeLoss="40.60" rerouteNo="0" devices="tripinfo_100" vType="type6" speedFactor="1.00" vaporized=""/>
    <tripinfo id="16" depart="39.00" departLane="51o_0" departPos="5.10" departPosLat="0.00" departSpeed="0.00" departDelay="19.00" arrival="166.00" arrivalLane="54i_0" arrivalPos="10.00" arrivalPosLat="0.00" arrivalSpeed="10.22" duration="127.00" routeLength="217.40" waitingTime="76.00" waitingCount="4" stopTime="0.00" timeLoss="109.28" rerouteNo="0" devices="tripinfo_16" vType="type3" speedFactor="0.88" vaporized=""/>
    <tripinfo id="17" depart="42.00" departLane="51o_0" departPos="5.10" departPosLat="0.00" departSpeed="0.00" departDelay="22.00" arrival="168.00" arrivalLane="54i_0" arrivalPos="10.00" arrivalPosLat="0.00" arrivalSpeed="11.30" duration="126.00" routeLength="217.40" waitingTime="75.00" waitingCount="4" stopTime="0.00" timeLoss="109.20" rerouteNo="0" devices="tripinfo_17" vType="type3" speedFactor="0.94" vaporized=""/>
    <tripinfo id="18" depart="45.00" departLane="51o_0" departPos="5.10" departPosLat="0.00" departSpeed="0.00" departDelay="25.00" arrival="170.00" arrivalLane="54i_0" arrivalPos="10.00" arrivalPosLat="0.00" arrivalSpeed="11.14" duration="125.00" routeLength="217.40" waitingTime="72.00" waitingCount="4" stopTime="0.00" timeLoss="108.19" rerouteNo="0" devices="tripinfo_18" vType="type3" speedFactor="0.94" vaporized=""/>
    <tripinfo id="110" depart="115.00" departLane="54o_0" departPos="1.70" departPosLat="0.00" departSpeed="0.00" departDelay="0.00" arrival="174.00" arrivalLane="51i_0" arrivalPos="10.00" arrivalPosLat="0.00" arrivalSpeed="5.48" duration="59.00" routeLength="236.77" waitingTime="8.00" waitingCount="1" stopTime="0.00" timeLoss="16.25" rerouteNo="0" devices="tripinfo_110" vType="type1" speedFactor="1.02" vaporized=""/>
    <tripinfo id="120" depart="125.00" departLane="54o_0" departPos="2.30" departPosLat="0.00" departSpeed="0.00" departDelay="0.00" arrival="189.00" arrivalLane="51i_2" arrivalPos="10.00" arrivalPosLat="0.00" arrivalSpeed="16.90" duration="64.00" routeLength="236.17" waitingTime="28.00" waitingCount="2" stopTime="0.00" timeLoss="47.70" rerouteNo="0" devices="tripinfo_120" vType="type2" speedFactor="1.07" vaporized=""/>
    <tripinfo id="130" depart="135.00" departLane="54o_0" departPos="5.10" departPosLat="0.00" departSpeed="0.00" departDelay="0.00" arrival="193.00" arrivalLane="51i_2" arrivalPos="10.00" arrivalPosLat="0.00" arrivalSpeed="11.54" duration="58.00" routeLength="233.37" waitingTime="21.00" waitingCount="1" stopTime="0.00" timeLoss="39.65" rerouteNo="0" devices="tripinfo_130" vType="type3" speedFactor="0.93" vaporized=""/>
    <tripinfo id="19" depart="48.00" departLane="51o_0" departPos="5.10" departPosLat="0.00" departSpeed="0.00" departDelay="28.00" arrival="195.00" arrivalLane="54i_0" arrivalPos="10.00" arrivalPosLat="0.00" arrivalSpeed="12.66" duration="147.00" routeLength="217.40" waitingTime="88.00" waitingCount="5" stopTime="0.00" timeLoss="133.87" rerouteNo="0" devices="tripinfo_19" vType="type3" speedFactor="1.16" vaporized=""/>
    <tripinfo id="140" depart="145.00" departLane="54o_0" departPos="5.10" departPosLat="0.00" departSpeed="0.00" departDelay="0.00" arrival="195.00" arrivalLane="51i_2" arrivalPos="10.00" arrivalPosLat="0.00" arrivalSpeed="11.65" duration="50.00" routeLength="233.37" waitingTime="19.00" waitingCount="1" stopTime="0.00" timeLoss="32.17" rerouteNo="0" devices="tripinfo_140" vType="type4" speedFactor="0.94" vaporized=""/>
    <tripinfo id="21" depart="51.00" departLane="51o_0" departPos="5.10" departPosLat="0.00" departSpeed="0.00" departDelay="26.00" arrival="199.00" arrivalLane="54i_0" arrivalPos="10.00" arrivalPosLat="0.00" arrivalSpeed="12.27" duration="148.00" routeLength="217.40" waitingTime="85.00" waitingCount="5" stopTime="0.00" timeLoss="132.66" rerouteNo="0" devices="tripinfo_21" vType="type4" speedFactor="1.01" vaporized=""/>
    <tripinfo id="22" depart="54.00" departLane="51o_0" departPos="5.10" departPosLat="0.00" departSpeed="0.00" departDelay="29.00" arrival="201.00" arrivalLane="54i_0" arrivalPos="10.00" arrivalPosLat="0.00" arrivalSpeed="12.08" duration="147.00" routeLength="217.40" waitingTime="85.00" waitingCount="5" stopTime="0.00" timeLoss="131.04" rerouteNo="0" devices="tripinfo_22" vType="type4" speedFactor="0.98" vaporized=""/>
    <tripinfo id="150" depart="155.00" departLane="54o_0" departPos="7.20" departPosLat="0.00" departSpeed="0.00" departDelay="0.00" arrival="224.00" arrivalLane="51i_2" arrivalPos="10.00" arrivalPosLat="0.00" arrivalSpeed="12.21" duration="69.00" routeLength="231.27" waitingTime="28.00" waitingCount="2" stopTime="0.00" timeLoss="53.26" rerouteNo="0" devices="tripinfo_150" vType="type5" speedFactor="1.02" vaporized=""/>
    <tripinfo id="160" depart="165.00" departLane="54o_0" departPos="10.00" departPosLat="0.00" departSpeed="0.00" departDelay="0.00" arrival="227.00" arrivalLane="51i_2" arrivalPos="10.00" arrivalPosLat="0.00" arrivalSpeed="10.56" duration="62.00" routeLength="228.47" waitingTime="20.00" waitingCount="1" stopTime="0.00" timeLoss="46.11" rerouteNo="0" devices="tripinfo_160" vType="type6" speedFactor="1.00" vaporized=""/>
    <tripinfo id="23" depart="75.00" departLane="51o_0" departPos="5.10" departPosLat="0.00" departSpeed="0.00" departDelay="50.00" arrival="229.00" arrivalLane="54i_0" arrivalPos="10.00" arrivalPosLat="0.00" arrivalSpeed="11.86" duration="154.00" routeLength="217.40" waitingTime="92.00" waitingCount="5" stopTime="0.00" timeLoss="136.92" rerouteNo="0" devices="tripinfo_23" vType="type4" speedFactor="0.89" vaporized=""/>
    <tripinfo id="24" depart="78.00" departLane="51o_0" departPos="5.10" departPosLat="0.00" departSpeed="0.00" departDelay="53.00" arrival="232.00" arrivalLane="54i_0" arrivalPos="10.00" arrivalPosLat="0.00" arrivalSpeed="11.42" duration="154.00" routeLength="217.40" waitingTime="91.00" waitingCount="6" stopTime="0.00" timeLoss="135.71" rerouteNo="0" devices="tripinfo_24" vType="type4" speedFactor="0.83" vaporized=""/>
    <tripinfo id="25" depart="102.00" departLane="51o_0" departPos="5.10" departPosLat="0.00" departSpeed="0.00" departDelay="72.00" arrival="234.00" arrivalLane="54i_0" arrivalPos="10.00" arrivalPosLat="0.00" arrivalSpeed="10.79" duration="132.00" routeLength="217.40" waitingTime="69.00" waitingCount="4" stopTime="0.00" timeLoss="114.60" rerouteNo="0" devices="tripinfo_25" vType="type4" speedFactor="0.87" vaporized=""/>
    <tripinfo id="26" depart="107.00" departLane="51o_0" departPos="5.10" departPosLat="0.00" departSpeed="0.00" departDelay="77.00" arrival="261.00" arrivalLane="54i_0" arrivalPos="10.00" arrivalPosLat="0.00" arrivalSpeed="10.88" duration="154.00" routeLength="217.40" waitingTime="91.00" waitingCount="5" stopTime="0.00" timeLoss="137.69" rerouteNo="0" devices="tripinfo_26" vType="type4" speedFactor="0.92" vaporized=""/>
    <tripinfo id="180" depart="185.00" departLane="54o_0" departPos="2.30" departPosLat="0.00" departSpeed="0.00" departDelay="0.00" arrival="261.00" arrivalLane="51i_2" arrivalPos="10.00" arrivalPosLat="0.00" arrivalSpeed="13.48" duration="76.00" routeLength="236.17" waitingTime="31.00" waitingCount="2" stopTime="0.00" timeLoss="58.95" rerouteNo="0" devices="tripinfo_180" vType="type2" speedFactor="0.96" vaporized=""/>
    <tripinfo id="27" depart="110.00" departLane="51o_0" departPos="5.10" departPosLat="0.00" departSpeed="0.00" departDelay="80.00" arrival="263.00" arrivalLane="54i_0" arrivalPos="10.00" arrivalPosLat="0.00" arrivalSpeed="12.22" duration="153.00" routeLength="217.40" waitingTime="93.00" waitingCount="5" stopTime="0.00" timeLoss="136.94" rerouteNo="0" devices="tripinfo_27" vType="type4" speedFactor="0.95" vaporized=""/>
    <tripinfo id="190" depart="195.00" departLane="54o_0" departPos="5.10" departPosLat="0.00" departSpeed="0.00" departDelay="0.00" arrival="264.00" arrivalLane="51i_2" arrivalPos="10.00" arrivalPosLat="0.00" arrivalSpeed="11.18" duration="69.00" routeLength="233.37" waitingTime="24.00" waitingCount="2" stopTime="0.00" timeLoss="50.23" rerouteNo="0" devices="tripinfo_190" vType="type3" speedFactor="0.88" vaporized=""/>
    <tripinfo id="28" depart="136.00" departLane="51o_0" departPos="5.10" departPosLat="0.00" departSpeed="0.00" departDelay="106.00" arrival="265.00" arrivalLane="54i_0" arrivalPos="10.00" arrivalPosLat="0.00" arrivalSpeed="13.35" duration="129.00" routeLength="217.40" waitingTime="73.00" waitingCount="4" stopTime="0.00" timeLoss="115.25" rerouteNo="0" devices="tripinfo_28" vType="type4" speedFactor="1.13" vaporized=""/>
    <tripinfo id="29" depart="139.00" departLane="51o_0" departPos="5.10" departPosLat="0.00" departSpeed="0.00" departDelay="109.00" arrival="267.00" arrivalLane="54i_0" arrivalPos="10.00" arrivalPosLat="0.00" arrivalSpeed="11.37" duration="128.00" routeLength="217.40" waitingTime="69.00" waitingCount="4" stopTime="0.00" timeLoss="111.79" rerouteNo="0" devices="tripinfo_29" vType="type4" speedFactor="0.93" vaporized=""/>
    <tripinfo id="170" depart="175.00" departLane="54o_0" departPos="1.70" departPosLat="0.00" departSpeed="0.00" departDelay="0.00" arrival="267.00" arrivalLane="51i_0" arrivalPos="10.00" arrivalPosLat="0.00" arrivalSpeed="5.42" duration="92.00" routeLength="236.77" waitingTime="34.00" waitingCount="2" stopTime="0.00" timeLoss="49.20" rerouteNo="0" devices="tripinfo_170" vType="type1" speedFactor="1.11" vaporized=""/>
    <tripinfo id="200" depart="205.00" departLane="54o_0" departPos="5.10" departPosLat="0.00" departSpeed="0.00" departDelay="0.00" arrival="286.00" arrivalLane="51i_2" arrivalPos="10.00" arrivalPosLat="0.00" arrivalSpeed="13.67" duration="81.00" routeLength="233.37" waitingTime="39.00" waitingCount="2" stopTime="0.00" timeLoss="65.53" rerouteNo="0" devices="tripinfo_200" vType="type4" speedFactor="1.09" vaporized=""/>
    <tripinfo id="210" depart="215.00" departLane="54o_0" departPos="7.20" departPosLat="0.00" departSpeed="0.00" departDelay="0.00" arrival="290.00" arrivalLane="51i_2" arrivalPos="10.00" arrivalPosLat="0.00" arrivalSpeed="11.79" duration="75.00" routeLength="231.27" waitingTime="32.00" waitingCount="2" stopTime="0.00" timeLoss="59.76" rerouteNo="0" devices="tripinfo_210" vType="type5" speedFactor="1.05" vaporized=""/>
    <tripinfo id="220" depart="225.00" departLane="54o_0" departPos="10.00" departPosLat="0.00" departSpeed="0.00" departDelay="0.00" arrival="293.00" arrivalLane="51i_2" arrivalPos="10.00" arrivalPosLat="0.00" arrivalSpeed="11.38" duration="68.00" routeLength="228.47" waitingTime="24.00" waitingCount="2" stopTime="0.00" timeLoss="52.16" rerouteNo="0" devices="tripinfo_220" vType="type6" speedFactor="1.00" vaporized=""/>
    <tripinfo id="31" depart="143.00" departLane="51o_0" departPos="7.20" departPosLat="0.00" departSpeed="0.00" departDelay="108.00" arrival="295.00" arrivalLane="54i_0" arrivalPos="10.00" arrivalPosLat="0.00" arrivalSpeed="11.42" duration="152.00" routeLength="215.30" waitingTime="92.00" waitingCount="5" stopTime="0.00" timeLoss="137.98" rerouteNo="0" devices="tripinfo_31" vType="type5" speedFactor="1.08" vaporized=""/>
    <tripinfo id="32" depart="170.00" departLane="51o_0" departPos="7.20" departPosLat="0.00" departSpeed="0.00" departDelay="135.00" arrival="298.00" arrivalLane="54i_0" arrivalPos="10.00" arrivalPosLat="0.00" arrivalSpeed="11.67" duration="128.00" routeLength="215.30" waitingTime="67.00" waitingCount="4" stopTime="0.00" timeLoss="112.68" rerouteNo="0" devices="tripinfo_32" vType="type5" speedFactor="1.00" vaporized=""/>
    <tripinfo id="250" depart="255.00" departLane="54o_0" departPos="5.10" departPosLat="0.00" departSpeed="0.00" departDelay="0.00" arrival="324.00" arrivalLane="51i_2" arrivalPos="10.00" arrivalPosLat="0.00" arrivalSpeed="13.94" duration="69.00" routeLength="233.37" waitingTime="27.00" waitingCount="2" stopTime="0.00" timeLoss="53.99" rerouteNo="0" devices="tripinfo_250" vType="type3" speedFactor="1.10" vaporized=""/>
    <tripinfo id="33" depart="174.00" departLane="51o_0" departPos="7.20" departPosLat="0.00" departSpeed="0.00" departDelay="139.00" arrival="327.00" arrivalLane="54i_0" arrivalPos="10.00" arrivalPosLat="0.00" arrivalSpeed="12.56" duration="153.00" routeLength="215.30" waitingTime="90.00" waitingCount="5" stopTime="0.00" timeLoss="138.91" rerouteNo="0" devices="tripinfo_33" vType="type5" speedFactor="1.09" vaporized=""/>
    <tripinfo id="240" depart="245.00" departLane="54o_0" departPos="2.30" departPosLat="0.00" departSpeed="0.00" departDelay="0.00" arrival="328.00" arrivalLane="51i_2" arrivalPos="10.00" arrivalPosLat="0.00" arrivalSpeed="12.28" duration="83.00" routeLength="236.17" waitingTime="42.00" waitingCount="3" stopTime="0.00" timeLoss="65.25" rerouteNo="0" devices="tripinfo_240" vType="type2" speedFactor="0.95" vaporized=""/>
    <tripinfo id="34" depart="200.00" departLane="51o_0" departPos="7.20" departPosLat="0.00" departSpeed="0.00" departDelay="165.00" arrival="329.00" arrivalLane="54i_0" arrivalPos="10.00" arrivalPosLat="0.00" arrivalSpeed="11.80" duration="129.00" routeLength="215.30" waitingTime="70.00" waitingCount="4" stopTime="0.00" timeLoss="114.08" rerouteNo="0" devices="tripinfo_34" vType="type5" speedFactor="1.00" vaporized=""/>
    <tripinfo id="230" depart="235.00" departLane="54o_0" departPos="1.70" departPosLat="0.00" departSpeed="0.00" departDelay="0.00" arrival="331.00" arrivalLane="51i_0" arrivalPos="10.00" arrivalPosLat="0.00" arrivalSpeed="5.41" duration="96.00" routeLength="236.77" waitingTime="39.00" waitingCount="2" stopTime="0.00" timeLoss="52.76" rerouteNo="0" devices="tripinfo_230" vType="type1" speedFactor="0.90" vaporized=""/>
    <tripinfo id="260" depart="265.00" departLane="54o_0" departPos="5.10" departPosLat="0.00" departSpeed="0.00" departDelay="0.00" arrival="351.00" arrivalLane="51i_2" arrivalPos="10.00" arrivalPosLat="0.00" arrivalSpeed="12.47" duration="86.00" routeLength="233.37" waitingTime="42.00" waitingCount="5" stopTime="0.00" timeLoss="69.44" rerouteNo="0" devices="tripinfo_260" vType="type4" speedFactor="1.00" vaporized=""/>
    <tripinfo id="270" depart="275.00" departLane="54o_0" departPos="7.20" departPosLat="0.00" departSpeed="0.00" departDelay="0.00" arrival="354.00" arrivalLane="51i_2" arrivalPos="10.00" arrivalPosLat="0.00" arrivalSpeed="11.71" duration="79.00" routeLength="231.27" waitingTime="37.00" waitingCount="2" stopTime="0.00" timeLoss="62.68" rerouteNo="0" devices="tripinfo_270" vType="type5" speedFactor="1.02" vaporized=""/>
    <tripinfo id="300" depart="305.00" departLane="54o_0" departPos="2.30" departPosLat="0.00" departSpeed="0.00" departDelay="0.00" arrival="358.00" arrivalLane="51i_2" arrivalPos="10.00" arrivalPosLat="0.00" arrivalSpeed="12.33" duration="53.00" routeLength="236.17" waitingTime="27.00" waitingCount="1" stopTime="0.00" timeLoss="35.30" rerouteNo="0" devices="tripinfo_300" vType="type2" speedFactor="0.93" vaporized=""/>
    <tripinfo id="35" depart="204.00" departLane="51o_0" departPos="7.20" departPosLat="0.00" departSpeed="0.00" departDelay="164.00" arrival="359.00" arrivalLane="54i_0" arrivalPos="10.00" arrivalPosLat="0.00" arrivalSpeed="11.10" duration="155.00" routeLength="215.30" waitingTime="95.00" waitingCount="5" stopTime="0.00" timeLoss="140.10" rerouteNo="0" devices="tripinfo_35" vType="type5" speedFactor="1.01" vaporized=""/>
    <tripinfo id="36" depart="231.00" departLane="51o_0" departPos="7.20" departPosLat="0.00" departSpeed="0.00" departDelay="191.00" arrival="362.00" arrivalLane="54i_0" arrivalPos="10.00" arrivalPosLat="0.00" arrivalSpeed="11.82" duration="131.00" routeLength="215.30" waitingTime="72.00" waitingCount="4" stopTime="0.00" timeLoss="115.83" rerouteNo="0" devices="tripinfo_36" vType="type5" speedFactor="0.99" vaporized=""/>
    <tripinfo id="280" depart="285.00" departLane="54o_0" departPos="10.00" departPosLat="0.00" departSpeed="0.00" departDelay="0.00" arrival="385.00" arrivalLane="51i_2" arrivalPos="10.00" arrivalPosLat="0.00" arrivalSpeed="11.84" duration="100.00" routeLength="228.47" waitingTime="50.00" waitingCount="5" stopTime="0.00" timeLoss="83.95" rerouteNo="0" devices="tripinfo_280" vType="type6" speedFactor="1.00" vaporized=""/>
    <tripinfo id="37" depart="236.00" departLane="51o_0" departPos="7.20" departPosLat="0.00" departSpeed="0.00" departDelay="196.00" arrival="390.00" arrivalLane="54i_0" arrivalPos="10.00" arrivalPosLat="0.00" arrivalSpeed="11.65" duration="154.00" routeLength="215.30" waitingTime="93.00" waitingCount="5" stopTime="0.00" timeLoss="140.10" rerouteNo="0" devices="tripinfo_37" vType="type5" speedFactor="1.09" vaporized=""/>
    <tripinfo id="38" depart="240.00" departLane="51o_0" departPos="7.20" departPosLat="0.00" departSpeed="0.00" departDelay="200.00" arrival="393.00" arrivalLane="54i_0" arrivalPos="10.00" arrivalPosLat="0.00" arrivalSpeed="12.20" duration="153.00" routeLength="215.30" waitingTime="93.00" waitingCount="6" stopTime="0.00" timeLoss="138.48" rerouteNo="0" devices="tripinfo_38" vType="type5" speedFactor="1.05" vaporized=""/>
    <tripinfo id="290" depart="295.00" departLane="54o_0" departPos="1.70" departPosLat="0.00" departSpeed="0.00" departDelay="0.00" arrival="398.00" arrivalLane="51i_0" arrivalPos="10.00" arrivalPosLat="0.00" arrivalSpeed="5.09" duration="103.00" routeLength="236.77" waitingTime="37.00" waitingCount="3" stopTime="0.00" timeLoss="60.17" rerouteNo="0" devices="tripinfo_290" vType="type1" speedFactor="0.95" vaporized=""/>
    <tripinfo id="310" depart="315.00" departLane="54o_0" departPos="5.10" departPosLat="0.00" departSpeed="0.00" departDelay="0.00" arrival="417.00" arrivalLane="51i_2" arrivalPos="10.00" arrivalPosLat="0.00" arrivalSpeed="9.24" duration="102.00" routeLength="233.37" waitingTime="56.00" waitingCount="4" stopTime="0.00" timeLoss="80.74" rerouteNo="0" devices="tripinfo_310" vType="type3" speedFactor="0.75" vaporized=""/>
    <tripinfo id="320" depart="325.00" departLane="54o_0" departPos="5.10" departPosLat="0.00" departSpeed="0.00" departDelay="0.00" arrival="419.00" arrivalLane="51i_2" arrivalPos="10.00" arrivalPosLat="0.00" arrivalSpeed="12.42" duration="94.00" routeLength="233.37" waitingTime="46.00" waitingCount="4" stopTime="0.00" timeLoss="77.24" rerouteNo="0" devices="tripinfo_320" vType="type4" speedFactor="0.97" vaporized=""/>