<?xml version="1.0" encoding="UTF-8"?>

<!-- generated on 2020年06月30日 星期二 04时38分51秒 by Eclipse SUMO GUI Version UNKNOWN
<configuration xmlns:xsi="http://www.w3.org/2001/XMLSchema-instance" xsi:noNamespaceSchemaLocation="http://sumo.dlr.de/xsd/sumoConfiguration.xsd">

    <input>
        <net-file value="data/single_intersection.net.xml"/>
        <route-files value="data/cross_9_1_30mins.rou.xml"/>
    </input>

    <output>
        <tripinfo-output value="tripinfo.xml"/>
    </output>

    <time>
        <begin value="0"/>
    </time>

    <processing>
        <lateral-resolution value="0.64"/>
        <waiting-time-memory value="60"/>
    </processing>

    <report>
        <verbose value="true"/>
        <no-step-log value="true"/>
    </report>

    <gui_only>
        <start value="true"/>
    </gui_only>

</configuration>
-->

<tripinfos xmlns:xsi="http://www.w3.org/2001/XMLSchema-instance" xsi:noNamespaceSchemaLocation="http://sumo.dlr.de/xsd/tripinfo_file.xsd">
    <tripinfo id="10" depart="15.00" departLane="54o_0" departPos="5.10" departPosLat="0.00" departSpeed="0.00" departDelay="0.00" arrival="317.00" arrivalLane="51i_2" arrivalPos="10.00" arrivalPosLat="0.00" arrivalSpeed="11.14" duration="302.00" routeLength="233.37" waitingTime="273.00" waitingCount="1" stopTime="0.00" timeLoss="287.06" rerouteNo="0" devices="tripinfo_10" vType="type3" speedFactor="1.09" vaporized=""/>
    <tripinfo id="20" depart="25.00" departLane="54o_0" departPos="5.10" departPosLat="0.00" departSpeed="0.00" departDelay="0.00" arrival="320.00" arrivalLane="51i_2" arrivalPos="10.00" arrivalPosLat="0.00" arrivalSpeed="12.20" duration="295.00" routeLength="233.37" waitingTime="267.00" waitingCount="1" stopTime="0.00" timeLoss="278.61" rerouteNo="0" devices="tripinfo_20" vType="type4" speedFactor="1.02" vaporized=""/>
    <tripinfo id="0" depart="5.00" departLane="51o_0" departPos="2.30" departPosLat="0.00" departSpeed="0.00" departDelay="0.00" arrival="323.00" arrivalLane="54i_0" arrivalPos="10.00" arrivalPosLat="0.00" arrivalSpeed="13.39" duration="318.00" routeLength="220.20" waitingTime="295.00" waitingCount="1" stopTime="0.00" timeLoss="303.27" rerouteNo="0" devices="tripinfo_0" vType="type2" speedFactor="1.06" vaporized=""/>
    <tripinfo id="30" depart="35.00" departLane="54o_0" departPos="7.20" departPosLat="0.00" departSpeed="0.00" departDelay="0.00" arrival="323.00" arrivalLane="51i_2" arrivalPos="10.00" arrivalPosLat="0.00" arrivalSpeed="12.02" duration="288.00" routeLength="231.27" waitingTime="256.00" waitingCount="1" stopTime="0.00" timeLoss="273.22" rerouteNo="0" devices="tripinfo_30" vType="type5" speedFactor="1.09" vaporized=""/>
    <tripinfo id="1" depart="6.00" departLane="51o_0" departPos="2.30" departPosLat="0.00" departSpeed="0.00" departDelay="1.00" arrival="326.00" arrivalLane="54i_0" arrivalPos="10.00" arrivalPosLat="0.00" arrivalSpeed="13.39" duration="320.00" routeLength="220.20" waitingTime="296.00" waitingCount="2" stopTime="0.00" timeLoss="303.40" rerouteNo="0" devices="tripinfo_1" vType="type2" speedFactor="0.94" vaporized=""/>
    <tripinfo id="2" depart="8.00" departLane="51o_0" departPos="2.30" departPosLat="0.00" departSpeed="0.00" departDelay="3.00" arrival="328.00" arrivalLane="54i_0" arrivalPos="10.00" arrivalPosLat="0.00" arrivalSpeed="15.44" duration="320.00" routeLength="220.20" waitingTime="294.00" waitingCount="1" stopTime="0.00" timeLoss="304.09" rerouteNo="0" devices="tripinfo_2" vType="type2" speedFactor="1.01" vaporized=""/>
    <tripinfo id="3" depart="10.00" departLane="51o_0" departPos="2.30" departPosLat="0.00" departSpeed="0.00" departDelay="5.00" arrival="329.00" arrivalLane="54i_0" arrivalPos="10.00" arrivalPosLat="0.00" arrivalSpeed="14.47" duration="319.00" routeLength="220.20" waitingTime="294.00" waitingCount="1" stopTime="0.00" timeLoss="304.67" rerouteNo="0" devices="tripinfo_3" vType="type2" speedFactor="1.08" vaporized=""/>
    <tripinfo id="4" depart="12.00" departLane="51o_0" departPos="2.30" departPosLat="0.00" departSpeed="0.00" departDelay="7.00" arrival="331.00" arrivalLane="54i_0" arrivalPos="10.00" arrivalPosLat="0.00" arrivalSpeed="13.44" duration="319.00" routeLength="220.20" waitingTime="292.00" waitingCount="1" stopTime="0.00" timeLoss="303.75" rerouteNo="0" devices="tripinfo_4" vType="type2" speedFactor="1.03" vaporized=""/>
    <tripinfo id="5" depart="14.00" departLane="51o_0" departPos="2.30" departPosLat="0.00" departSpeed="0.00" departDelay="4.00" arrival="335.00" arrivalLane="54i_0" arrivalPos="10.00" arrivalPosLat="0.00" arrivalSpeed="10.71" duration="321.00" routeLength="220.20" waitingTime="290.00" waitingCount="1" stopTime="0.00" timeLoss="301.98" rerouteNo="0" devices="tripinfo_5" vType="type2" speedFactor="0.83" vaporized=""/>
    <tripinfo id="6" depart="16.00" departLane="51o_0" departPos="2.30" departPosLat="0.00" departSpeed="0.00" departDelay="6.00" arrival="337.00" arrivalLane="54i_0" arrivalPos="10.00" arrivalPosLat="0.00" arrivalSpeed="14.33" duration="321.00" routeLength="220.20" waitingTime="289.00" waitingCount="1" stopTime="0.00" timeLoss="305.62" rerouteNo="0" devices="tripinfo_6" vType="type2" speedFactor="1.05" vaporized=""/>
    <tripinfo id="7" depart="18.00" departLane="51o_0" departPos="2.30" departPosLat="0.00" departSpeed="0.00" departDelay="8.00" arrival="338.00" arrivalLane="54i_0" arrivalPos="10.00" arrivalPosLat="0.00" arrivalSpeed="11.83" duration="320.00" routeLength="220.20" waitingTime="288.00" waitingCount="1" stopTime="0.00" timeLoss="302.84" rerouteNo="0" devices="tripinfo_7" vType="type2" speedFactor="0.89" vaporized=""/>
    <tripinfo id="8" depart="20.00" departLane="51o_0" departPos="2.30" departPosLat="0.00" departSpeed="0.00" departDelay="10.00" arrival="340.00" arrivalLane="54i_0" arrivalPos="10.00" arrivalPosLat="0.00" arrivalSpeed="11.79" duration="320.00" routeLength="220.20" waitingTime="287.00" waitingCount="1" stopTime="0.00" timeLoss="303.44" rerouteNo="0" devices="tripinfo_8" vType="type2" speedFactor="0.94" vaporized=""/>
    <tripinfo id="9" depart="21.00" departLane="51o_0" departPos="2.30" departPosLat="0.00" departSpeed="0.00" departDelay="11.00" arrival="343.00" arrivalLane="54i_0" arrivalPos="10.00" arrivalPosLat="0.00" arrivalSpeed="14.02" duration="322.00" routeLength="220.20" waitingTime="287.00" waitingCount="1" stopTime="0.00" timeLoss="303.19" rerouteNo="0" devices="tripinfo_9" vType="type2" speedFactor="0.86" vaporized=""/>
    <tripinfo id="11" depart="24.00" departLane="51o_0" departPos="5.10" departPosLat="0.00" departSpeed="0.00" departDelay="9.00" arrival="345.00" arrivalLane="54i_0" arrivalPos="10.00" arrivalPosLat="0.00" arrivalSpeed="13.57" duration="321.00" routeLength="217.40" waitingTime="287.00" waitingCount="1" stopTime="0.00" timeLoss="305.60" rerouteNo="0" devices="tripinfo_11" vType="type3" speedFactor="1.03" vaporized=""/>
    <tripinfo id="12" depart="27.00" departLane="51o_0" departPos="5.10" departPosLat="0.00" departSpeed="0.00" departDelay="12.00" arrival="346.00" arrivalLane="54i_0" arrivalPos="10.00" arrivalPosLat="0.00" arrivalSpeed="10.99" duration="319.00" routeLength="217.40" waitingTime="285.00" waitingCount="1" stopTime="0.00" timeLoss="304.37" rerouteNo="0" devices="tripinfo_12" vType="type3" speedFactor="1.05" vaporized=""/>
    <tripinfo id="13" depart="30.00" departLane="51o_0" departPos="5.10" departPosLat="0.00" departSpeed="0.00" departDelay="15.00" arrival="348.00" arrivalLane="54i_0" arrivalPos="10.00" arrivalPosLat="0.00" arrivalSpeed="13.91" duration="318.00" routeLength="217.40" waitingTime="284.00" waitingCount="1" stopTime="0.00" timeLoss="304.38" rerouteNo="0" devices="tripinfo_13" vType="type3" speedFactor="1.12" vaporized=""/>
    <tripinfo id="14" depart="33.00" departLane="51o_0" departPos="5.10" departPosLat="0.00" departSpeed="0.00" departDelay="18.00" arrival="350.00" arrivalLane="54i_0" arrivalPos="10.00" arrivalPosLat="0.00" arrivalSpeed="12.16" duration="317.00" routeLength="217.40" waitingTime="284.00" waitingCount="1" stopTime="0.00" timeLoss="301.60" rerouteNo="0" devices="tripinfo_14" vType="type3" speedFactor="0.99" vaporized=""/>
    <tripinfo id="15" depart="36.00" departLane="51o_0" departPos="5.10" departPosLat="0.00" departSpeed="0.00" departDelay="16.00" arrival="353.00" arrivalLane="54i_0" arrivalPos="10.00" arrivalPosLat="0.00" arrivalSpeed="11.70" duration="317.00" routeLength="217.40" waitingTime="282.00" waitingCount="1" stopTime="0.00" timeLoss="299.85" rerouteNo="0" devices="tripinfo_15" vType="type3" speedFactor="0.93" vaporized=""/>
    <tripinfo id="16" depart="39.00" departLane="51o_0" departPos="5.10" departPosLat="0.00" departSpeed="0.00" departDelay="19.00" arrival="355.00" arrivalLane="54i_0" arrivalPos="10.00" arrivalPosLat="0.00" arrivalSpeed="11.65" duration="316.00" routeLength="217.40" waitingTime="281.00" waitingCount="1" stopTime="0.00" timeLoss="298.11" rerouteNo="0" devices="tripinfo_16" vType="type3" speedFactor="0.88" vaporized=""/>
    <tripinfo id="17" depart="42.00" departLane="51o_0" departPos="5.10" departPosLat="0.00" departSpeed="0.00" departDelay="22.00" arrival="357.00" arrivalLane="54i_0" arrivalPos="10.00" arrivalPosLat="0.00" arrivalSpeed="10.73" duration="315.00" routeLength="217.40" waitingTime="281.00" waitingCount="1" stopTime="0.00" timeLoss="298.19" rerouteNo="0" devices="tripinfo_17" vType="type3" speedFactor="0.94" vaporized=""/>
    <tripinfo id="18" depart="45.00" departLane="51o_0" departPos="5.10" departPosLat="0.00" departSpeed="0.00" departDelay="25.00" arrival="359.00" arrivalLane="54i_0" arrivalPos="10.00" arrivalPosLat="0.00" arrivalSpeed="11.53" duration="314.00" routeLength="217.40" waitingTime="281.00" waitingCount="1" stopTime="0.00" timeLoss="297.19" rerouteNo="0" devices="tripinfo_18" vType="type3" speedFactor="0.94" vaporized=""/>
    <tripinfo id="19" depart="334.00" departLane="51o_0" departPos="5.10" departPosLat="0.00" departSpeed="0.00" departDelay="314.00" arrival="360.00" arrivalLane="54i_0" arrivalPos="10.00" arrivalPosLat="0.00" arrivalSpeed="11.72" duration="26.00" routeLength="217.40" waitingTime="0.00" waitingCount="0" stopTime="0.00" timeLoss="12.80" rerouteNo="0" devices="tripinfo_19" vType="type3" speedFactor="1.16" vaporized=""/>
    <tripinfo id="21" depart="337.00" departLane="51o_0" departPos="5.10" departPosLat="0.00" departSpeed="0.00" departDelay="312.00" arrival="362.00" arrivalLane="54i_0" arrivalPos="10.00" arrivalPosLat="0.00" arrivalSpeed="11.01" duration="25.00" routeLength="217.40" waitingTime="0.00" waitingCount="0" stopTime="0.00" timeLoss="9.77" rerouteNo="0" devices="tripinfo_21" vType="type4" speedFactor="1.01" vaporized=""/>
    <tripinfo id="22" depart="340.00" departLane="51o_0" departPos="5.10" departPosLat="0.00" departSpeed="0.00" departDelay="315.00" arrival="364.00" arrivalLane="54i_0" arrivalPos="10.00" arrivalPosLat="0.00" arrivalSpeed="12.01" duration="24.00" routeLength="217.40" waitingTime="0.00" waitingCount="0" stopTime="0.00" timeLoss="8.59" rerouteNo="0" devices="tripinfo_22" vType="type4" speedFactor="0.98" vaporized=""/>
    <tripinfo id="23" depart="343.00" departLane="51o_0" departPos="5.10" departPosLat="0.00" departSpeed="0.00" departDelay="318.00" arrival="367.00" arrivalLane="54i_0" arrivalPos="10.00" arrivalPosLat="0.00" arrivalSpeed="10.07" duration="24.00" routeLength="217.40" waitingTime="0.00" waitingCount="0" stopTime="0.00" timeLoss="6.57" rerouteNo="0" devices="tripinfo_23" vType="type4" speedFactor="0.89" vaporized=""/>
    <tripinfo id="24" depart="346.00" departLane="51o_0" departPos="5.10" departPosLat="0.00" departSpeed="0.00" departDelay="321.00" arrival="370.00" arrivalLane="54i_0" arrivalPos="10.00" arrivalPosLat="0.00" arrivalSpeed="10.23" duration="24.00" routeLength="217.40" waitingTime="0.00" waitingCount="0" stopTime="0.00" timeLoss="5.64" rerouteNo="0" devices="tripinfo_24" vType="type4" speedFactor="0.83" vaporized=""/>
    <tripinfo id="25" depart="349.00" departLane="51o_0" departPos="5.10" departPosLat="0.00" departSpeed="0.00" departDelay="319.00" arrival="373.00" arrivalLane="54i_0" arrivalPos="10.00" arrivalPosLat="0.00" arrivalSpeed="11.95" duration="24.00" routeLength="217.40" waitingTime="0.00" waitingCount="0" stopTime="0.00" timeLoss="5.82" rerouteNo="0" devices="tripinfo_25" vType="type4" speedFactor="0.87" vaporized=""/>
    <tripinfo id="26" depart="352.00" departLane="51o_0" departPos="5.10" departPosLat="0.00" departSpeed="0.00" departDelay="322.00" arrival="376.00" arrivalLane="54i_0" arrivalPos="10.00" arrivalPosLat="0.00" arrivalSpeed="11.23" duration="24.00" routeLength="217.40" waitingTime="0.00" waitingCount="0" stopTime="0.00" timeLoss="6.74" rerouteNo="0" devices="tripinfo_26" vType="type4" speedFactor="0.92" vaporized=""/>
    <tripinfo id="27" depart="355.00" departLane="51o_0" departPos="5.10" departPosLat="0.00" departSpeed="0.00" departDelay="325.00" arrival="378.00" arrivalLane="54i_0" arrivalPos="10.00" arrivalPosLat="0.00" arrivalSpeed="11.34" duration="23.00" routeLength="217.40" waitingTime="0.00" waitingCount="0" stopTime="0.00" timeLoss="6.89" rerouteNo="0" devices="tripinfo_27" vType="type4" speedFactor="0.95" vaporized=""/>
    <tripinfo id="28" depart="358.00" departLane="51o_0" departPos="5.10" departPosLat="0.00" departSpeed="0.00" departDelay="328.00" arrival="380.00" arrivalLane="54i_0" arrivalPos="10.00" arrivalPosLat="0.00" arrivalSpeed="11.97" duration="22.00" routeLength="217.40" waitingTime="0.00" waitingCount="0" stopTime="0.00" timeLoss="8.42" rerouteNo="0" devices="tripinfo_28" vType="type4" speedFactor="1.13" vaporized=""/>
    <tripinfo id="29" depart="361.00" departLane="51o_0" departPos="5.10" departPosLat="0.00" departSpeed="0.00" departDelay="331.00" arrival="383.00" arrivalLane="54i_0" arrivalPos="10.00" arrivalPosLat="0.00" arrivalSpeed="11.39" duration="22.00" routeLength="217.40" waitingTime="0.00" waitingCount="0" stopTime="0.00" timeLoss="5.81" rerouteNo="0" devices="tripinfo_29" vType="type4" speedFactor="0.93" vaporized=""/>
    <tripinfo id="31" depart="364.00" departLane="51o_0" departPos="7.20" departPosLat="0.00" departSpeed="0.00" departDelay="329.00" arrival="388.00" arrivalLane="54i_0" arrivalPos="10.00" arrivalPosLat="0.24" arrivalSpeed="12.48" duration="24.00" routeLength="215.30" waitingTime="0.00" waitingCount="0" stopTime="0.00" timeLoss="9.78" rerouteNo="0" devices="tripinfo_31" vType="type5" speedFactor="1.08" vaporized=""/>
    <tripinfo id="32" depart="368.00" departLane="51o_0" departPos="7.20" departPosLat="0.00" departSpeed="0.00" departDelay="333.00" arrival="393.00" arrivalLane="54i_0" arrivalPos="10.00" arrivalPosLat="0.00" arrivalSpeed="11.86" duration="25.00" routeLength="215.30" waitingTime="0.00" waitingCount="0" stopTime="0.00" timeLoss="9.93" rerouteNo="0" devices="tripinfo_32" vType="type5" speedFactor="1.00" vaporized=""/>
    <tripinfo id="33" depart="373.00" departLane="51o_0" departPos="7.20" departPosLat="0.00" departSpeed="0.00" departDelay="338.00" arrival="397.00" arrivalLane="54i_0" arrivalPos="10.00" arrivalPosLat="0.00" arrivalSpeed="11.60" duration="24.00" routeLength="215.30" waitingTime="0.00" waitingCount="0" stopTime="0.00" timeLoss="9.91" rerouteNo="0" devices="tripinfo_33" vType="type5" speedFactor="1.09" vaporized=""/>
    <tripinfo id="34" depart="378.00" departLane="51o_0" departPos="7.20" departPosLat="0.00" departSpeed="0.00" departDelay="343.00" arrival="403.00" arrivalLane="54i_0" arrivalPos="10.00" arrivalPosLat="0.00" arrivalSpeed="11.80" duration="25.00" routeLength="215.30" waitingTime="0.00" waitingCount="0" stopTime="0.00" timeLoss="9.48" rerouteNo="0" devices="tripinfo_34" vType="type5" speedFactor="1.00" vaporized=""/>
    <tripinfo id="35" depart="382.00" departLane="51o_0" departPos="7.20" departPosLat="0.00" departSpeed="0.00" departDelay="342.00" arrival="408.00" arrivalLane="54i_0" arrivalPos="10.00" arrivalPosLat="0.00" arrivalSpeed="11.91" duration="26.00" routeLength="215.30" waitingTime="0.00" waitingCount="0" stopTime="0.00" timeLoss="10.57" rerouteNo="0" devices="tripinfo_35" vType="type5" speedFactor="1.01" vaporized=""/>
    <tripinfo id="36" depart="387.00" departLane="51o_0" departPos="7.20" departPosLat="0.00" departSpeed="0.00" departDelay="347.00" arrival="413.00" arrivalLane="54i_0" arrivalPos="10.00" arrivalPosLat="0.00" arrivalSpeed="11.35" duration="26.00" routeLength="215.30" waitingTime="0.00" waitingCount="0" stopTime="0.00" timeLoss="10.18" rerouteNo="0" devices="tripinfo_36" vType="type5" speedFactor="0.99" vaporized=""/>
    <tripinfo id="37" depart="391.00" departLane="51o_0" departPos="7.20" departPosLat="0.00" departSpeed="0.00" departDelay="351.00" arrival="415.00" arrivalLane="54i_0" arrivalPos="10.00" arrivalPosLat="0.00" arrivalSpeed="12.82" duration="24.00" routeLength="215.30" waitingTime="0.00" waitingCount="0" stopTime="0.00" timeLoss="9.98" rerouteNo="0" devices="tripinfo_37" vType="type5" speedFactor="1.09" vaporized=""/>
    <tripinfo id="38" depart="395.00" departLane="51o_0" departPos="7.20" departPosLat="0.00" departSpeed="0.00" departDelay="355.00" arrival="421.00" arrivalLane="54i_0" arrivalPos="10.00" arrivalPosLat="0.00" arrivalSpeed="11.81" duration="26.00" routeLength="215.30" waitingTime="1.00" waitingCount="1" stopTime="0.00" timeLoss="11.10" rerouteNo="0" devices="tripinfo_38" vType="type5" speedFactor="1.05" vaporized=""/>
    <tripinfo id="39" depart="401.00" departLane="51o_0" departPos="7.20" departPosLat="0.00" departSpeed="0.00" departDelay="361.00" arrival="426.00" arrivalLane="54i_0" arrivalPos="10.00" arrivalPosLat="0.00" arrivalSpeed="11.25" duration="25.00" routeLength="215.30" waitingTime="0.00" waitingCount="0" stopTime="0.00" timeLoss="9.23" rerouteNo="0" devices="tripinfo_39" vType="type5" speedFactor="0.95" vaporized=""/>
    <tripinfo id="41" depart="406.00" departLane="51o_0" departPos="10.00" departPosLat="0.00" departSpeed="0.00" departDelay="361.00" arrival="432.00" arrivalLane="54i_0" arrivalPos="10.00" arrivalPosLat="0.00" arrivalSpeed="11.97" duration="26.00" routeLength="212.50" waitingTime="0.00" waitingCount="0" stopTime="0.00" timeLoss="10.36" rerouteNo="0" devices="tripinfo_41" vType="type6" speedFactor="1.00" vaporized=""/>
    <tripinfo id="42" depart="412.00" departLane="51o_0" departPos="10.00" departPosLat="0.00" departSpeed="0.00" departDelay="367.00" arrival="437.00" arrivalLane="54i_0" arrivalPos="10.00" arrivalPosLat="0.00" arrivalSpeed="11.93" duration="25.00" routeLength="212.50" waitingTime="0.00" waitingCount="0" stopTime="0.00" timeLoss="9.75" rerouteNo="0" devices="tripinfo_42" vType="type6" speedFactor="1.00" vaporized=""/>
    <tripinfo id="43" depart="418.00" departLane="51o_0" departPos="10.00" departPosLat="0.00" departSpeed="0.00" departDelay="373.00" arrival="443.00" arrivalLane="54i_0" arrivalPos="10.00" arrivalPosLat="0.00" arrivalSpeed="11.66" duration="25.00" routeLength="212.50" waitingTime="0.00" waitingCount="0" stopTime="0.00" timeLoss="9.95" rerouteNo="0" devices="tripinfo_43" vType="type6" speedFactor="1.00" vaporized=""/>
    <tripinfo id="44" depart="424.00" departLane="51o_0" departPos="10.00" departPosLat="0.00" departSpeed="0.00" departDelay="379.00" arrival="450.00" arrivalLane="54i_0" arrivalPos="10.00" arrivalPosLat="0.00" arrivalSpeed="12.05" duration="26.00" routeLength="212.50" waitingTime="0.00" waitingCount="0" stopTime="0.00" timeLoss="10.74" rerouteNo="0" devices="tripinfo_44" vType="type6" speedFactor="1.00" vaporized=""/>
    <tripinfo id="45" depart="430.00" departLane="51o_0" departPos="10.00" departPosLat="0.00" departSpeed="0.00" departDelay="380.00" arrival="456.00" arrivalLane="54i_0" arrivalPos="10.00" arrivalPosLat="0.00" arrivalSpeed="11.60" duration="26.00" routeLength="212.50" waitingTime="0.00" waitingCount="0" stopTime="0.00" timeLoss="11.14" rerouteNo="0" devices="tripinfo_45" vType="type6" speedFactor="1.00" vaporized=""/>
    <tripinfo id="46" depart="436.00" departLane="51o_0" departPos="10.00" departPosLat="0.00" departSpeed="0.00" departDelay="386.00" arrival="462.00" arrivalLane="54i_0" arrivalPos="10.00" arrivalPosLat="0.00" arrivalSpeed="11.23" duration="26.00" routeLength="212.50" waitingTime="0.00" waitingCount="0" stopTime="0.00" timeLoss="10.72" rerouteNo="0" devices="tripinfo_46" vType="type6" speedFactor="1.00" vaporized=""/>
    <tripinfo id="47" depart="442.00" departLane="51o_0" departPos="10.00" departPosLat="0.00" departSpeed="0.00" departDelay="392.00" arrival="468.00" arrivalLane="54i_0" arrivalPos="10.00" arrivalPosLat="0.00" arrivalSpeed="11.78" duration="26.00" routeLength="212.50" waitingTime="0.00" waitingCount="0" stopTime="0.00" timeLoss="10.63" rerouteNo="0" devices="tripinfo_47" vType="type6" speedFactor="1.00" vaporized=""/>
    <tripinfo id="48" depart="448.00" departLane="51o_0" departPos="10.00" departPosLat="0.00" departSpeed="0.00" departDelay="398.00" arrival="473.00" arrivalLane="54i_0" arrivalPos="10.00" arrivalPosLat="0.29" arrivalSpeed="10.63" duration="25.00" routeLength="212.50" waitingTime="0.00" waitingCount="0" stopTime="0.00" timeLoss="10.13" rerouteNo="0" devices="tripinfo_48" vType="type6" speedFactor="1.00" vaporized=""/>
    <tripinfo id="49" depart="454.00" departLane="51o_0" departPos="10.00" departPosLat="0.00" departSpeed="0.00" departDelay="404.00" arrival="480.00" arrivalLane="54i_0" arrivalPos="10.00" arrivalPosLat="0.00" arrivalSpeed="11.62" duration="26.00" routeLength="212.50" waitingTime="0.00" waitingCount="0" stopTime="0.00" timeLoss="10.75" rerouteNo="0" devices="tripinfo_49" vType="type6" speedFactor="1.00" vaporized=""/>
    <tripinfo id="51" depart="458.00" departLane="51o_0" departPos="1.70" departPosLat="0.00" departSpeed="0.00" departDelay="403.00" arrival="503.00" arrivalLane="54i_0" arrivalPos="10.00" arrivalPosLat="0.00" arrivalSpeed="5.00" duration="45.00" routeLength="220.80" waitingTime="0.00" waitingCount="0" stopTime="0.00" timeLoss="4.79" rerouteNo="0" devices="tripinfo_51" vType="type1" speedFactor="0.96" vaporized=""/>
    <tripinfo id="52" depart="460.00" departLane="51o_0" departPos="1.70" departPosLat="0.00" departSpeed="0.00" departDelay="405.00" arrival="506.00" arrivalLane="54i_0" arrivalPos="10.00" arrivalPosLat="0.00" arrivalSpeed="5.13" duration="46.00" routeLength="220.80" waitingTime="0.00" waitingCount="0" stopTime="0.00" timeLoss="5.43" rerouteNo="0" devices="tripinfo_52" vType="type1" speedFactor="1.09" vaporized=""/>
    <tripinfo id="53" depart="463.00" departLane="51o_0" departPos="1.70" departPosLat="0.00" departSpeed="0.00" departDelay="408.00" arrival="508.00" arrivalLane="54i_0" arrivalPos="10.00" arrivalPosLat="0.00" arrivalSpeed="5.23" duration="45.00" routeLength="220.80" waitingTime="0.00" waitingCount="0" stopTime="0.00" timeLoss="4.86" rerouteNo="0" devices="tripinfo_53" vType="type1" speedFactor="1.04" vaporized=""/>
    <tripinfo id="54" depart="465.00" departLane="51o_0" departPos="1.70" departPosLat="0.00" departSpeed="0.00" departDelay="410.00" arrival="511.00" arrivalLane="54i_0" arrivalPos="10.00" arrivalPosLat="0.00" arrivalSpeed="5.09" duration="46.00" routeLength="220.80" waitingTime="0.00" waitingCount="0" stopTime="0.00" timeLoss="5.68" rerouteNo="0" devices="tripinfo_54" vType="type1" speedFactor="1.04" vaporized=""/>
    <tripinfo id="55" depart="468.00" departLane="51o_0" departPos="1.70" departPosLat="0.00" departSpeed="0.00" departDelay="408.00" arrival="513.00" arrivalLane="54i_0" arrivalPos="10.00" arrivalPosLat="0.00" arrivalSpeed="5.08" duration="45.00" routeLength="220.80" waitingTime="0.00" waitingCount="0" stopTime="0.00" timeLoss="4.96" rerouteNo="0" devices="tripinfo_55" vType="type1" speedFactor="1.09" vaporized=""/>
    <tripinfo id="56" depart="470.00" departLane="51o_0" departPos="1.70" departPosLat="0.00" departSpeed="0.00" departDelay="410.00" arrival="516.00" arrivalLane="54i_0" arrivalPos="10.00" arrivalPosLat="0.00" arrivalSpeed="5.19" duration="46.00" routeLength="220.80" waitingTime="0.00" waitingCount="0" stopTime="0.00" timeLoss="5.65" rerouteNo="0" devices="tripinfo_56" vType="type1" speedFactor="1.00" vaporized=""/>
    <tripinfo id="220" depart="225.00" departLane="54o_0" departPos="10.00" departPosLat="0.00" departSpeed="0.00" departDelay="0.00" arrival="545.00" arrivalLane="51i_0" arrivalPos="10.00" arrivalPosLat="0.00" arrivalSpeed="12.01" duration="320.00" routeLength="207.50" waitingTime="301.00" waitingCount="1" stopTime="0.00" timeLoss="310.06" rerouteNo="0" devices="tripinfo_220" vType="type6" speedFactor="1.00" vaporized=""/>
    <tripinfo id="240" depart="245.00" departLane="54o_0" departPos="2.30" departPosLat="0.00" departSpeed="0.00" departDelay="0.00" arrival="563.00" arrivalLane="51i_0" arrivalPos="10.00" arrivalPosLat="0.00" arrivalSpeed="13.21" duration="318.00" routeLength="215.20" waitingTime="301.00" waitingCount="1" stopTime="0.00" timeLoss="306.28" rerouteNo="0" devices="tripinfo_240" vType="type2" speedFactor="0.95" vaporized=""/>
    <tripinfo id="260" depart="265.00" departLane="54o_0" departPos="5.10" departPosLat="0.00" departSpeed="0.00" departDelay="0.00" arrival="581.00" arrivalLane="51i_0" arrivalPos="10.00" arrivalPosLat="0.00" arrivalSpeed="12.44" duration="316.00" routeLength="212.40" waitingTime="301.00" waitingCount="1" stopTime="0.00" timeLoss="306.03" rerouteNo="0" devices="tripinfo_260" vType="type4" speedFactor="1.00" vaporized=""/>
    <tripinfo id="40" depart="45.00" departLane="54o_0" departPos="10.00" departPosLat="0.00" departSpeed="0.00" departDelay="0.00" arrival="624.00" arrivalLane="51i_0" arrivalPos="10.00" arrivalPosLat="0.00" arrivalSpeed="11.85" duration="579.00" routeLength="207.50" waitingTime="547.00" waitingCount="2" stopTime="0.00" timeLoss="565.96" rerouteNo="0" devices="tripinfo_40" vType="type6" speedFactor="1.00" vaporized=""/>
    <tripinfo id="160" depart="165.00" departLane="54o_0" departPos="10.00" departPosLat="0.00" departSpeed="0.00" departDelay="0.00" arrival="632.00" arrivalLane="51i_0" arrivalPos="10.00" arrivalPosLat="0.00" arrivalSpeed="11.73" duration="467.00" routeLength="207.50" waitingTime="444.00" waitingCount="3" stopTime="0.00" timeLoss="456.52" rerouteNo="0" devices="tripinfo_160" vType="type6" speedFactor="1.00" vaporized=""/>
    <tripinfo id="250" depart="255.00" departLane="54o_0" departPos="5.10" departPosLat="0.00" departSpeed="0.00" departDelay="0.00" arrival="718.00" arrivalLane="51i_2" arrivalPos="10.00" arrivalPosLat="0.00" arrivalSpeed="13.34" duration="463.00" routeLength="233.27" waitingTime="387.00" waitingCount="3" stopTime="0.00" timeLoss="397.01" rerouteNo="0" devices="tripinfo_250" vType="type3" speedFactor="1.10" vaporized=""/>
    <tripinfo id="60" depart="65.00" departLane="54o_0" departPos="2.30" departPosLat="0.00" departSpeed="0.00" departDelay="0.00" arrival="724.00" arrivalLane="51i_2" arrivalPos="10.00" arrivalPosLat="0.00" arrivalSpeed="11.15" duration="659.00" routeLength="236.17" waitingTime="616.00" waitingCount="4" stopTime="0.00" timeLoss="639.23" rerouteNo="0" devices="tripinfo_60" vType="type2" speedFactor="0.85" vaporized=""/>
    <tripinfo id="61" depart="481.00" departLane="51o_0" departPos="2.30" departPosLat="0.00" departSpeed="0.00" departDelay="416.00" arrival="732.00" arrivalLane="54i_1" arrivalPos="10.00" arrivalPosLat="0.00" arrivalSpeed="15.20" duration="251.00" routeLength="220.20" waitingTime="211.00" waitingCount="1" stopTime="0.00" timeLoss="237.35" rerouteNo="0" devices="tripinfo_61" vType="type2" speedFactor="1.17" vaporized=""/>
    <tripinfo id="62" depart="484.00" departLane="51o_0" departPos="2.30" departPosLat="0.00" departSpeed="0.00" departDelay="419.00" arrival="734.00" arrivalLane="54i_1" arrivalPos="10.00" arrivalPosLat="0.00" arrivalSpeed="13.76" duration="250.00" routeLength="220.20" waitingTime="211.00" waitingCount="1" stopTime="0.00" timeLoss="235.05" rerouteNo="0" devices="tripinfo_62" vType="type2" speedFactor="1.02" vaporized=""/>
    <tripinfo id="50" depart="55.00" departLane="54o_0" departPos="1.70" departPosLat="0.00" departSpeed="0.00" departDelay="0.00" arrival="735.00" arrivalLane="51i_0" arrivalPos="10.00" arrivalPosLat="0.00" arrivalSpeed="5.41" duration="680.00" routeLength="236.77" waitingTime="616.00" waitingCount="4" stopTime="0.00" timeLoss="636.69" rerouteNo="0" devices="tripinfo_50" vType="type1" speedFactor="1.03" vaporized=""/>
    <tripinfo id="57" depart="473.00" departLane="51o_0" departPos="1.70" departPosLat="0.00" departSpeed="0.00" departDelay="413.00" arrival="736.00" arrivalLane="54i_0" arrivalPos="10.00" arrivalPosLat="0.00" arrivalSpeed="5.43" duration="263.00" routeLength="220.80" waitingTime="215.00" waitingCount="1" stopTime="0.00" timeLoss="222.65" rerouteNo="0" devices="tripinfo_57" vType="type1" speedFactor="0.90" vaporized=""/>
    <tripinfo id="63" depart="486.00" departLane="51o_0" departPos="2.30" departPosLat="0.00" departSpeed="0.00" departDelay="421.00" arrival="737.00" arrivalLane="54i_1" arrivalPos="10.00" arrivalPosLat="0.00" arrivalSpeed="15.81" duration="251.00" routeLength="220.20" waitingTime="210.00" waitingCount="1" stopTime="0.00" timeLoss="236.01" rerouteNo="0" devices="tripinfo_63" vType="type2" speedFactor="1.10" vaporized=""/>
    <tripinfo id="58" depart="475.00" departLane="51o_0" departPos="1.70" departPosLat="0.00" departSpeed="0.00" departDelay="415.00" arrival="738.00" arrivalLane="54i_0" arrivalPos="10.00" arrivalPosLat="0.00" arrivalSpeed="4.96" duration="263.00" routeLength="220.80" waitingTime="213.00" waitingCount="1" stopTime="0.00" timeLoss="222.49" rerouteNo="0" devices="tripinfo_58" vType="type1" speedFactor="0.88" vaporized=""/>