<?xml version="1.0" encoding="UTF-8"?>

<!-- generated on 2020年06月27日 星期六 22时50分45秒 by Eclipse SUMO GUI Version UNKNOWN
<configuration xmlns:xsi="http://www.w3.org/2001/XMLSchema-instance" xsi:noNamespaceSchemaLocation="http://sumo.dlr.de/xsd/sumoConfiguration.xsd">

    <input>
        <net-file value="data/single_intersection.net.xml"/>
        <route-files value="data/cross_9_1_30mins.rou.xml"/>
    </input>

    <output>
        <tripinfo-output value="tripinfo.xml"/>
    </output>

    <time>
        <begin value="0"/>
    </time>

    <processing>
        <lateral-resolution value="0.64"/>
        <waiting-time-memory value="60"/>
    </processing>

    <report>
        <verbose value="true"/>
        <no-step-log value="true"/>
    </report>

    <gui_only>
        <start value="true"/>
    </gui_only>

</configuration>
-->

<tripinfos xmlns:xsi="http://www.w3.org/2001/XMLSchema-instance" xsi:noNamespaceSchemaLocation="http://sumo.dlr.de/xsd/tripinfo_file.xsd">
    <tripinfo id="10" depart="15.00" departLane="54o_0" departPos="5.10" departPosLat="0.00" departSpeed="0.00" departDelay="0.00" arrival="36.00" arrivalLane="51i_2" arrivalPos="10.00" arrivalPosLat="0.00" arrivalSpeed="13.03" duration="21.00" routeLength="233.37" waitingTime="0.00" waitingCount="0" stopTime="0.00" timeLoss="6.01" rerouteNo="0" devices="tripinfo_10" vType="type3" speedFactor="1.09" vaporized=""/>
    <tripinfo id="0" depart="5.00" departLane="51o_0" departPos="2.30" departPosLat="0.00" departSpeed="0.00" departDelay="0.00" arrival="43.00" arrivalLane="54i_0" arrivalPos="10.00" arrivalPosLat="0.00" arrivalSpeed="14.02" duration="38.00" routeLength="220.20" waitingTime="15.00" waitingCount="1" stopTime="0.00" timeLoss="23.07" rerouteNo="0" devices="tripinfo_0" vType="type2" speedFactor="1.06" vaporized=""/>
    <tripinfo id="1" depart="6.00" departLane="51o_0" departPos="2.30" departPosLat="0.00" departSpeed="0.00" departDelay="1.00" arrival="47.00" arrivalLane="54i_0" arrivalPos="10.00" arrivalPosLat="0.00" arrivalSpeed="15.37" duration="41.00" routeLength="220.20" waitingTime="16.00" waitingCount="2" stopTime="0.00" timeLoss="23.63" rerouteNo="0" devices="tripinfo_1" vType="type2" speedFactor="0.94" vaporized=""/>
    <tripinfo id="2" depart="8.00" departLane="51o_0" departPos="2.30" departPosLat="0.00" departSpeed="0.00" departDelay="3.00" arrival="48.00" arrivalLane="54i_0" arrivalPos="10.00" arrivalPosLat="0.00" arrivalSpeed="14.62" duration="40.00" routeLength="220.20" waitingTime="14.00" waitingCount="1" stopTime="0.00" timeLoss="24.35" rerouteNo="0" devices="tripinfo_2" vType="type2" speedFactor="1.01" vaporized=""/>
    <tripinfo id="3" depart="10.00" departLane="51o_0" departPos="2.30" departPosLat="0.00" departSpeed="0.00" departDelay="5.00" arrival="49.00" arrivalLane="54i_0" arrivalPos="10.00" arrivalPosLat="0.00" arrivalSpeed="11.94" duration="39.00" routeLength="220.20" waitingTime="14.00" waitingCount="1" stopTime="0.00" timeLoss="24.51" rerouteNo="0" devices="tripinfo_3" vType="type2" speedFactor="1.08" vaporized=""/>
    <tripinfo id="4" depart="12.00" departLane="51o_0" departPos="2.30" departPosLat="0.00" departSpeed="0.00" departDelay="7.00" arrival="51.00" arrivalLane="54i_0" arrivalPos="10.00" arrivalPosLat="0.00" arrivalSpeed="14.21" duration="39.00" routeLength="220.20" waitingTime="12.00" waitingCount="1" stopTime="0.00" timeLoss="23.86" rerouteNo="0" devices="tripinfo_4" vType="type2" speedFactor="1.03" vaporized=""/>
    <tripinfo id="5" depart="14.00" departLane="51o_0" departPos="2.30" departPosLat="0.00" departSpeed="0.00" departDelay="4.00" arrival="54.00" arrivalLane="54i_0" arrivalPos="10.00" arrivalPosLat="0.00" arrivalSpeed="12.75" duration="40.00" routeLength="220.20" waitingTime="10.00" waitingCount="1" stopTime="0.00" timeLoss="21.36" rerouteNo="0" devices="tripinfo_5" vType="type2" speedFactor="0.83" vaporized=""/>
    <tripinfo id="6" depart="16.00" departLane="51o_0" departPos="2.30" departPosLat="0.00" departSpeed="0.00" departDelay="6.00" arrival="56.00" arrivalLane="54i_0" arrivalPos="10.00" arrivalPosLat="0.00" arrivalSpeed="14.40" duration="40.00" routeLength="220.20" waitingTime="9.00" waitingCount="1" stopTime="0.00" timeLoss="24.77" rerouteNo="0" devices="tripinfo_6" vType="type2" speedFactor="1.05" vaporized=""/>
    <tripinfo id="7" depart="18.00" departLane="51o_0" departPos="2.30" departPosLat="0.00" departSpeed="0.00" departDelay="8.00" arrival="59.00" arrivalLane="54i_0" arrivalPos="10.00" arrivalPosLat="0.00" arrivalSpeed="12.55" duration="41.00" routeLength="220.20" waitingTime="8.00" waitingCount="1" stopTime="0.00" timeLoss="23.08" rerouteNo="0" devices="tripinfo_7" vType="type2" speedFactor="0.89" vaporized=""/>
    <tripinfo id="8" depart="20.00" departLane="51o_0" departPos="2.30" departPosLat="0.00" departSpeed="0.00" departDelay="10.00" arrival="60.00" arrivalLane="54i_0" arrivalPos="10.00" arrivalPosLat="0.00" arrivalSpeed="13.43" duration="40.00" routeLength="220.20" waitingTime="7.00" waitingCount="1" stopTime="0.00" timeLoss="23.50" rerouteNo="0" devices="tripinfo_8" vType="type2" speedFactor="0.94" vaporized=""/>
    <tripinfo id="20" depart="25.00" departLane="54o_0" departPos="5.10" departPosLat="0.00" departSpeed="0.00" departDelay="0.00" arrival="94.00" arrivalLane="51i_2" arrivalPos="10.00" arrivalPosLat="0.00" arrivalSpeed="11.70" duration="69.00" routeLength="233.37" waitingTime="41.00" waitingCount="1" stopTime="0.00" timeLoss="52.35" rerouteNo="0" devices="tripinfo_20" vType="type4" speedFactor="1.02" vaporized=""/>
    <tripinfo id="30" depart="35.00" departLane="54o_0" departPos="7.20" departPosLat="0.00" departSpeed="0.00" departDelay="0.00" arrival="98.00" arrivalLane="51i_2" arrivalPos="10.00" arrivalPosLat="0.00" arrivalSpeed="12.52" duration="63.00" routeLength="231.27" waitingTime="30.00" waitingCount="1" stopTime="0.00" timeLoss="47.88" rerouteNo="0" devices="tripinfo_30" vType="type5" speedFactor="1.09" vaporized=""/>
    <tripinfo id="40" depart="45.00" departLane="54o_0" departPos="10.00" departPosLat="0.00" departSpeed="0.00" departDelay="0.00" arrival="100.00" arrivalLane="51i_2" arrivalPos="10.00" arrivalPosLat="0.00" arrivalSpeed="11.09" duration="55.00" routeLength="228.47" waitingTime="22.00" waitingCount="1" stopTime="0.00" timeLoss="38.99" rerouteNo="0" devices="tripinfo_40" vType="type6" speedFactor="1.00" vaporized=""/>
    <tripinfo id="9" depart="21.00" departLane="51o_0" departPos="2.30" departPosLat="0.00" departSpeed="0.00" departDelay="11.00" arrival="110.00" arrivalLane="54i_0" arrivalPos="10.00" arrivalPosLat="0.00" arrivalSpeed="12.61" duration="89.00" routeLength="220.20" waitingTime="52.00" waitingCount="2" stopTime="0.00" timeLoss="70.73" rerouteNo="0" devices="tripinfo_9" vType="type2" speedFactor="0.86" vaporized=""/>
    <tripinfo id="11" depart="24.00" departLane="51o_0" departPos="5.10" departPosLat="0.00" departSpeed="0.00" departDelay="9.00" arrival="112.00" arrivalLane="54i_0" arrivalPos="10.00" arrivalPosLat="0.00" arrivalSpeed="13.46" duration="88.00" routeLength="217.40" waitingTime="49.00" waitingCount="2" stopTime="0.00" timeLoss="72.81" rerouteNo="0" devices="tripinfo_11" vType="type3" speedFactor="1.03" vaporized=""/>
    <tripinfo id="60" depart="65.00" departLane="54o_0" departPos="2.30" departPosLat="0.00" departSpeed="0.00" departDelay="0.00" arrival="112.00" arrivalLane="51i_2" arrivalPos="10.00" arrivalPosLat="0.00" arrivalSpeed="13.42" duration="47.00" routeLength="236.17" waitingTime="11.00" waitingCount="1" stopTime="0.00" timeLoss="27.24" rerouteNo="0" devices="tripinfo_60" vType="type2" speedFactor="0.85" vaporized=""/>
    <tripinfo id="12" depart="27.00" departLane="51o_0" departPos="5.10" departPosLat="0.00" departSpeed="0.00" departDelay="12.00" arrival="114.00" arrivalLane="54i_0" arrivalPos="10.00" arrivalPosLat="0.00" arrivalSpeed="13.57" duration="87.00" routeLength="217.40" waitingTime="47.00" waitingCount="2" stopTime="0.00" timeLoss="72.01" rerouteNo="0" devices="tripinfo_12" vType="type3" speedFactor="1.05" vaporized=""/>
    <tripinfo id="13" depart="30.00" departLane="51o_0" departPos="5.10" departPosLat="0.00" departSpeed="0.00" departDelay="15.00" arrival="115.00" arrivalLane="54i_0" arrivalPos="10.00" arrivalPosLat="0.00" arrivalSpeed="11.78" duration="85.00" routeLength="217.40" waitingTime="47.00" waitingCount="2" stopTime="0.00" timeLoss="71.39" rerouteNo="0" devices="tripinfo_13" vType="type3" speedFactor="1.12" vaporized=""/>
    <tripinfo id="50" depart="55.00" departLane="54o_0" departPos="1.70" departPosLat="0.00" departSpeed="0.00" departDelay="0.00" arrival="115.00" arrivalLane="51i_0" arrivalPos="10.00" arrivalPosLat="0.00" arrivalSpeed="5.28" duration="60.00" routeLength="236.77" waitingTime="9.00" waitingCount="1" stopTime="0.00" timeLoss="17.39" rerouteNo="0" devices="tripinfo_50" vType="type1" speedFactor="1.03" vaporized=""/>
    <tripinfo id="14" depart="33.00" departLane="51o_0" departPos="5.10" departPosLat="0.00" departSpeed="0.00" departDelay="18.00" arrival="118.00" arrivalLane="54i_0" arrivalPos="10.00" arrivalPosLat="0.00" arrivalSpeed="11.40" duration="85.00" routeLength="217.40" waitingTime="46.00" waitingCount="2" stopTime="0.00" timeLoss="68.85" rerouteNo="0" devices="tripinfo_14" vType="type3" speedFactor="0.99" vaporized=""/>
    <tripinfo id="15" depart="36.00" departLane="51o_0" departPos="5.10" departPosLat="0.00" departSpeed="0.00" departDelay="16.00" arrival="120.00" arrivalLane="54i_0" arrivalPos="10.00" arrivalPosLat="0.00" arrivalSpeed="11.46" duration="84.00" routeLength="217.40" waitingTime="44.00" waitingCount="2" stopTime="0.00" timeLoss="67.10" rerouteNo="0" devices="tripinfo_15" vType="type3" speedFactor="0.93" vaporized=""/>
    <tripinfo id="16" depart="39.00" departLane="51o_0" departPos="5.10" departPosLat="0.00" departSpeed="0.00" departDelay="19.00" arrival="122.00" arrivalLane="54i_0" arrivalPos="10.00" arrivalPosLat="0.00" arrivalSpeed="11.39" duration="83.00" routeLength="217.40" waitingTime="42.00" waitingCount="2" stopTime="0.00" timeLoss="65.57" rerouteNo="0" devices="tripinfo_16" vType="type3" speedFactor="0.88" vaporized=""/>
    <tripinfo id="70" depart="75.00" departLane="54o_0" departPos="5.10" departPosLat="0.00" departSpeed="0.00" departDelay="0.00" arrival="157.00" arrivalLane="51i_2" arrivalPos="10.00" arrivalPosLat="0.00" arrivalSpeed="12.83" duration="82.00" routeLength="233.37" waitingTime="49.00" waitingCount="2" stopTime="0.00" timeLoss="66.95" rerouteNo="0" devices="tripinfo_70" vType="type3" speedFactor="1.08" vaporized=""/>
    <tripinfo id="80" depart="85.00" departLane="54o_0" departPos="5.10" departPosLat="0.00" departSpeed="0.00" departDelay="0.00" arrival="160.00" arrivalLane="51i_2" arrivalPos="10.00" arrivalPosLat="0.00" arrivalSpeed="12.88" duration="75.00" routeLength="233.37" waitingTime="47.00" waitingCount="1" stopTime="0.00" timeLoss="58.79" rerouteNo="0" devices="tripinfo_80" vType="type4" speedFactor="1.02" vaporized=""/>
    <tripinfo id="90" depart="95.00" departLane="54o_0" departPos="7.20" departPosLat="0.00" departSpeed="0.00" departDelay="0.00" arrival="164.00" arrivalLane="51i_2" arrivalPos="10.00" arrivalPosLat="0.00" arrivalSpeed="12.08" duration="69.00" routeLength="231.27" waitingTime="35.00" waitingCount="1" stopTime="0.00" timeLoss="53.06" rerouteNo="0" devices="tripinfo_90" vType="type5" speedFactor="1.02" vaporized=""/>
    <tripinfo id="100" depart="105.00" departLane="54o_0" departPos="10.00" departPosLat="0.00" departSpeed="0.00" departDelay="0.00" arrival="166.00" arrivalLane="51i_2" arrivalPos="10.00" arrivalPosLat="0.00" arrivalSpeed="11.23" duration="61.00" routeLength="228.47" waitingTime="26.00" waitingCount="1" stopTime="0.00" timeLoss="45.26" rerouteNo="0" devices="tripinfo_100" vType="type6" speedFactor="1.00" vaporized=""/>
    <tripinfo id="17" depart="42.00" departLane="51o_0" departPos="5.10" departPosLat="0.00" departSpeed="0.00" departDelay="22.00" arrival="173.00" arrivalLane="54i_0" arrivalPos="10.00" arrivalPosLat="0.00" arrivalSpeed="11.79" duration="131.00" routeLength="217.40" waitingTime="88.00" waitingCount="3" stopTime="0.00" timeLoss="114.79" rerouteNo="0" devices="tripinfo_17" vType="type3" speedFactor="0.94" vaporized=""/>
    <tripinfo id="18" depart="45.00" departLane="51o_0" departPos="5.10" departPosLat="0.00" departSpeed="0.00" departDelay="25.00" arrival="175.00" arrivalLane="54i_0" arrivalPos="10.00" arrivalPosLat="0.00" arrivalSpeed="10.57" duration="130.00" routeLength="217.40" waitingTime="86.00" waitingCount="3" stopTime="0.00" timeLoss="113.78" rerouteNo="0" devices="tripinfo_18" vType="type3" speedFactor="0.94" vaporized=""/>
    <tripinfo id="19" depart="53.00" departLane="51o_0" departPos="5.10" departPosLat="0.00" departSpeed="0.00" departDelay="33.00" arrival="177.00" arrivalLane="54i_0" arrivalPos="10.00" arrivalPosLat="0.00" arrivalSpeed="13.28" duration="124.00" routeLength="217.40" waitingTime="84.00" waitingCount="2" stopTime="0.00" timeLoss="110.75" rerouteNo="0" devices="tripinfo_19" vType="type3" speedFactor="1.16" vaporized=""/>
    <tripinfo id="21" depart="57.00" departLane="51o_0" departPos="5.10" departPosLat="0.00" departSpeed="0.00" departDelay="32.00" arrival="179.00" arrivalLane="54i_0" arrivalPos="10.00" arrivalPosLat="0.00" arrivalSpeed="12.22" duration="122.00" routeLength="217.40" waitingTime="83.00" waitingCount="2" stopTime="0.00" timeLoss="106.69" rerouteNo="0" devices="tripinfo_21" vType="type4" speedFactor="1.01" vaporized=""/>
    <tripinfo id="22" depart="60.00" departLane="51o_0" departPos="5.10" departPosLat="0.00" departSpeed="0.00" departDelay="35.00" arrival="181.00" arrivalLane="54i_0" arrivalPos="10.00" arrivalPosLat="0.00" arrivalSpeed="10.62" duration="121.00" routeLength="217.40" waitingTime="83.00" waitingCount="2" stopTime="0.00" timeLoss="105.19" rerouteNo="0" devices="tripinfo_22" vType="type4" speedFactor="0.98" vaporized=""/>
    <tripinfo id="110" depart="115.00" departLane="54o_0" departPos="1.70" departPosLat="0.00" departSpeed="0.00" departDelay="0.00" arrival="182.00" arrivalLane="51i_0" arrivalPos="10.00" arrivalPosLat="0.00" arrivalSpeed="5.48" duration="67.00" routeLength="236.77" waitingTime="14.00" waitingCount="1" stopTime="0.00" timeLoss="23.89" rerouteNo="0" devices="tripinfo_110" vType="type1" speedFactor="1.02" vaporized=""/>
    <tripinfo id="23" depart="63.00" departLane="51o_0" departPos="5.10" departPosLat="0.00" departSpeed="0.00" departDelay="38.00" arrival="184.00" arrivalLane="54i_0" arrivalPos="10.00" arrivalPosLat="0.00" arrivalSpeed="11.03" duration="121.00" routeLength="217.40" waitingTime="82.00" waitingCount="2" stopTime="0.00" timeLoss="103.94" rerouteNo="0" devices="tripinfo_23" vType="type4" speedFactor="0.89" vaporized=""/>
    <tripinfo id="24" depart="65.00" departLane="51o_0" departPos="5.10" departPosLat="0.00" departSpeed="0.00" departDelay="40.00" arrival="187.00" arrivalLane="54i_0" arrivalPos="10.00" arrivalPosLat="0.00" arrivalSpeed="10.89" duration="122.00" routeLength="217.40" waitingTime="81.00" waitingCount="2" stopTime="0.00" timeLoss="103.60" rerouteNo="0" devices="tripinfo_24" vType="type4" speedFactor="0.83" vaporized=""/>
    <tripinfo id="120" depart="125.00" departLane="54o_0" departPos="2.30" departPosLat="0.00" departSpeed="0.00" departDelay="0.00" arrival="221.00" arrivalLane="51i_2" arrivalPos="10.00" arrivalPosLat="0.00" arrivalSpeed="14.89" duration="96.00" routeLength="236.17" waitingTime="65.00" waitingCount="2" stopTime="0.00" timeLoss="80.11" rerouteNo="0" devices="tripinfo_120" vType="type2" speedFactor="1.07" vaporized=""/>
    <tripinfo id="130" depart="135.00" departLane="54o_0" departPos="5.10" departPosLat="0.00" departSpeed="0.00" departDelay="0.00" arrival="225.00" arrivalLane="51i_2" arrivalPos="10.00" arrivalPosLat="0.00" arrivalSpeed="12.57" duration="90.00" routeLength="233.37" waitingTime="51.00" waitingCount="3" stopTime="0.00" timeLoss="71.65" rerouteNo="0" devices="tripinfo_130" vType="type3" speedFactor="0.93" vaporized=""/>
    <tripinfo id="140" depart="145.00" departLane="54o_0" departPos="5.10" departPosLat="0.00" departSpeed="0.00" departDelay="0.00" arrival="227.00" arrivalLane="51i_2" arrivalPos="10.00" arrivalPosLat="0.00" arrivalSpeed="11.81" duration="82.00" routeLength="233.37" waitingTime="44.00" waitingCount="1" stopTime="0.00" timeLoss="63.99" rerouteNo="0" devices="tripinfo_140" vType="type4" speedFactor="0.94" vaporized=""/>
    <tripinfo id="150" depart="155.00" departLane="54o_0" departPos="7.20" departPosLat="0.00" departSpeed="0.00" departDelay="0.00" arrival="229.00" arrivalLane="51i_2" arrivalPos="10.00" arrivalPosLat="0.00" arrivalSpeed="11.70" duration="74.00" routeLength="231.27" waitingTime="41.00" waitingCount="1" stopTime="0.00" timeLoss="57.48" rerouteNo="0" devices="tripinfo_150" vType="type5" speedFactor="1.02" vaporized=""/>
    <tripinfo id="180" depart="185.00" departLane="54o_0" departPos="2.30" departPosLat="0.00" departSpeed="0.00" departDelay="0.00" arrival="232.00" arrivalLane="51i_2" arrivalPos="10.00" arrivalPosLat="0.00" arrivalSpeed="15.36" duration="47.00" routeLength="236.17" waitingTime="20.00" waitingCount="1" stopTime="0.00" timeLoss="29.66" rerouteNo="0" devices="tripinfo_180" vType="type2" speedFactor="0.96" vaporized=""/>
    <tripinfo id="160" depart="165.00" departLane="54o_0" departPos="10.00" departPosLat="0.00" departSpeed="0.00" departDelay="0.00" arrival="235.00" arrivalLane="51i_2" arrivalPos="10.00" arrivalPosLat="0.00" arrivalSpeed="11.90" duration="70.00" routeLength="228.47" waitingTime="35.00" waitingCount="1" stopTime="0.00" timeLoss="53.36" rerouteNo="0" devices="tripinfo_160" vType="type6" speedFactor="1.00" vaporized=""/>
    <tripinfo id="25" depart="110.00" departLane="51o_0" departPos="5.10" departPosLat="0.00" departSpeed="0.00" departDelay="80.00" arrival="238.00" arrivalLane="54i_0" arrivalPos="10.00" arrivalPosLat="0.00" arrivalSpeed="11.94" duration="128.00" routeLength="217.40" waitingTime="89.00" waitingCount="3" stopTime="0.00" timeLoss="110.43" rerouteNo="0" devices="tripinfo_25" vType="type4" speedFactor="0.87" vaporized=""/>
    <tripinfo id="26" depart="115.00" departLane="51o_0" departPos="5.10" departPosLat="0.00" departSpeed="0.00" departDelay="85.00" arrival="240.00" arrivalLane="54i_0" arrivalPos="10.00" arrivalPosLat="0.00" arrivalSpeed="11.75" duration="125.00" routeLength="217.40" waitingTime="86.00" waitingCount="2" stopTime="0.00" timeLoss="108.29" rerouteNo="0" devices="tripinfo_26" vType="type4" speedFactor="0.92" vaporized=""/>
    <tripinfo id="27" depart="119.00" departLane="51o_0" departPos="5.10" departPosLat="0.00" departSpeed="0.00" departDelay="89.00" arrival="242.00" arrivalLane="54i_0" arrivalPos="10.00" arrivalPosLat="0.00" arrivalSpeed="12.19" duration="123.00" routeLength="217.40" waitingTime="86.00" waitingCount="2" stopTime="0.00" timeLoss="106.77" rerouteNo="0" devices="tripinfo_27" vType="type4" speedFactor="0.95" vaporized=""/>
    <tripinfo id="28" depart="122.00" departLane="51o_0" departPos="5.10" departPosLat="0.00" departSpeed="0.00" departDelay="92.00" arrival="244.00" arrivalLane="54i_0" arrivalPos="10.00" arrivalPosLat="0.00" arrivalSpeed="12.71" duration="122.00" routeLength="217.40" waitingTime="82.00" waitingCount="2" stopTime="0.00" timeLoss="108.40" rerouteNo="0" devices="tripinfo_28" vType="type4" speedFactor="1.13" vaporized=""/>
    <tripinfo id="29" depart="125.00" departLane="51o_0" departPos="5.10" departPosLat="0.00" departSpeed="0.00" departDelay="95.00" arrival="246.00" arrivalLane="54i_0" arrivalPos="10.00" arrivalPosLat="0.00" arrivalSpeed="12.24" duration="121.00" routeLength="217.40" waitingTime="81.00" waitingCount="2" stopTime="0.00" timeLoss="104.49" rerouteNo="0" devices="tripinfo_29" vType="type4" speedFactor="0.93" vaporized=""/>
    <tripinfo id="31" depart="128.00" departLane="51o_0" departPos="7.20" departPosLat="0.00" departSpeed="0.00" departDelay="93.00" arrival="248.00" arrivalLane="54i_0" arrivalPos="10.00" arrivalPosLat="0.00" arrivalSpeed="12.68" duration="120.00" routeLength="215.30" waitingTime="79.00" waitingCount="2" stopTime="0.00" timeLoss="105.86" rerouteNo="0" devices="tripinfo_31" vType="type5" speedFactor="1.08" vaporized=""/>
    <tripinfo id="190" depart="195.00" departLane="54o_0" departPos="5.10" departPosLat="0.00" departSpeed="0.00" departDelay="0.00" arrival="293.00" arrivalLane="51i_2" arrivalPos="10.00" arrivalPosLat="0.00" arrivalSpeed="10.84" duration="98.00" routeLength="233.37" waitingTime="54.00" waitingCount="2" stopTime="0.00" timeLoss="79.48" rerouteNo="0" devices="tripinfo_190" vType="type3" speedFactor="0.88" vaporized=""/>
    <tripinfo id="200" depart="205.00" departLane="54o_0" departPos="5.10" departPosLat="0.00" departSpeed="0.00" departDelay="0.00" arrival="295.00" arrivalLane="51i_2" arrivalPos="10.00" arrivalPosLat="0.00" arrivalSpeed="14.00" duration="90.00" routeLength="233.37" waitingTime="44.00" waitingCount="2" stopTime="0.00" timeLoss="74.77" rerouteNo="0" devices="tripinfo_200" vType="type4" speedFactor="1.09" vaporized=""/>
    <tripinfo id="210" depart="215.00" departLane="54o_0" departPos="7.20" departPosLat="0.00" departSpeed="0.00" departDelay="0.00" arrival="297.00" arrivalLane="51i_2" arrivalPos="10.00" arrivalPosLat="0.00" arrivalSpeed="11.47" duration="82.00" routeLength="231.27" waitingTime="40.00" waitingCount="1" stopTime="0.00" timeLoss="66.64" rerouteNo="0" devices="tripinfo_210" vType="type5" speedFactor="1.05" vaporized=""/>
    <tripinfo id="170" depart="175.00" departLane="54o_0" departPos="1.70" departPosLat="0.00" departSpeed="0.00" departDelay="0.00" arrival="298.00" arrivalLane="51i_0" arrivalPos="10.00" arrivalPosLat="0.00" arrivalSpeed="5.42" duration="123.00" routeLength="236.77" waitingTime="67.00" waitingCount="2" stopTime="0.00" timeLoss="80.23" rerouteNo="0" devices="tripinfo_170" vType="type1" speedFactor="1.11" vaporized=""/>
    <tripinfo id="220" depart="225.00" departLane="54o_0" departPos="10.00" departPosLat="0.00" departSpeed="0.00" departDelay="0.00" arrival="299.00" arrivalLane="51i_2" arrivalPos="10.00" arrivalPosLat="0.00" arrivalSpeed="11.50" duration="74.00" routeLength="228.47" waitingTime="35.00" waitingCount="1" stopTime="0.00" timeLoss="57.95" rerouteNo="0" devices="tripinfo_220" vType="type6" speedFactor="1.00" vaporized=""/>
    <tripinfo id="32" depart="133.00" departLane="51o_0" departPos="7.20" departPosLat="0.00" departSpeed="0.00" departDelay="98.00" arrival="303.00" arrivalLane="54i_0" arrivalPos="10.00" arrivalPosLat="0.00" arrivalSpeed="11.77" duration="170.00" routeLength="215.30" waitingTime="127.00" waitingCount="4" stopTime="0.00" timeLoss="154.89" rerouteNo="0" devices="tripinfo_32" vType="type5" speedFactor="1.00" vaporized=""/>
    <tripinfo id="33" depart="180.00" departLane="51o_0" departPos="7.20" departPosLat="0.00" departSpeed="0.00" departDelay="145.00" arrival="305.00" arrivalLane="54i_0" arrivalPos="10.00" arrivalPosLat="0.00" arrivalSpeed="12.78" duration="125.00" routeLength="215.30" waitingTime="84.00" waitingCount="2" stopTime="0.00" timeLoss="111.10" rerouteNo="0" devices="tripinfo_33" vType="type5" speedFactor="1.09" vaporized=""/>
    <tripinfo id="34" depart="184.00" departLane="51o_0" departPos="7.20" departPosLat="0.00" departSpeed="0.00" departDelay="149.00" arrival="307.00" arrivalLane="54i_0" arrivalPos="10.00" arrivalPosLat="0.00" arrivalSpeed="11.59" duration="123.00" routeLength="215.30" waitingTime="80.00" waitingCount="3" stopTime="0.00" timeLoss="107.99" rerouteNo="0" devices="tripinfo_34" vType="type5" speedFactor="1.00" vaporized=""/>
    <tripinfo id="35" depart="189.00" departLane="51o_0" departPos="7.20" departPosLat="0.00" departSpeed="0.00" departDelay="149.00" arrival="310.00" arrivalLane="54i_0" arrivalPos="10.00" arrivalPosLat="0.00" arrivalSpeed="11.64" duration="121.00" routeLength="215.30" waitingTime="78.00" waitingCount="2" stopTime="0.00" timeLoss="105.67" rerouteNo="0" devices="tripinfo_35" vType="type5" speedFactor="1.01" vaporized=""/>
    <tripinfo id="36" depart="194.00" departLane="51o_0" departPos="7.20" departPosLat="0.00" departSpeed="0.00" departDelay="154.00" arrival="312.00" arrivalLane="54i_0" arrivalPos="10.00" arrivalPosLat="0.00" arrivalSpeed="11.83" duration="118.00" routeLength="215.30" waitingTime="77.00" waitingCount="2" stopTime="0.00" timeLoss="102.76" rerouteNo="0" devices="tripinfo_36" vType="type5" speedFactor="0.99" vaporized=""/>
    <tripinfo id="37" depart="198.00" departLane="51o_0" departPos="7.20" departPosLat="0.00" departSpeed="0.00" departDelay="158.00" arrival="314.00" arrivalLane="54i_0" arrivalPos="10.00" arrivalPosLat="0.00" arrivalSpeed="12.41" duration="116.00" routeLength="215.30" waitingTime="76.00" waitingCount="2" stopTime="0.00" timeLoss="102.02" rerouteNo="0" devices="tripinfo_37" vType="type5" speedFactor="1.09" vaporized=""/>
    <tripinfo id="240" depart="245.00" departLane="54o_0" departPos="2.30" departPosLat="0.00" departSpeed="0.00" departDelay="0.00" arrival="357.00" arrivalLane="51i_2" arrivalPos="10.00" arrivalPosLat="0.00" arrivalSpeed="11.97" duration="112.00" routeLength="236.17" waitingTime="69.00" waitingCount="2" stopTime="0.00" timeLoss="94.67" rerouteNo="0" devices="tripinfo_240" vType="type2" speedFactor="0.95" vaporized=""/>
    <tripinfo id="250" depart="255.00" departLane="54o_0" departPos="5.10" departPosLat="0.00" departSpeed="0.00" departDelay="0.00" arrival="359.00" arrivalLane="51i_2" arrivalPos="10.00" arrivalPosLat="0.00" arrivalSpeed="11.61" duration="104.00" routeLength="233.37" waitingTime="58.00" waitingCount="2" stopTime="0.00" timeLoss="89.41" rerouteNo="0" devices="tripinfo_250" vType="type3" speedFactor="1.10" vaporized=""/>
    <tripinfo id="260" depart="265.00" departLane="54o_0" departPos="5.10" departPosLat="0.00" departSpeed="0.00" departDelay="0.00" arrival="361.00" arrivalLane="51i_2" arrivalPos="10.00" arrivalPosLat="0.00" arrivalSpeed="11.55" duration="96.00" routeLength="233.37" waitingTime="50.00" waitingCount="2" stopTime="0.00" timeLoss="79.88" rerouteNo="0" devices="tripinfo_260" vType="type4" speedFactor="1.00" vaporized=""/>
    <tripinfo id="230" depart="235.00" departLane="54o_0" departPos="1.70" departPosLat="0.00" departSpeed="0.00" departDelay="0.00" arrival="362.00" arrivalLane="51i_0" arrivalPos="10.00" arrivalPosLat="0.00" arrivalSpeed="5.41" duration="127.00" routeLength="236.77" waitingTime="72.00" waitingCount="2" stopTime="0.00" timeLoss="84.21" rerouteNo="0" devices="tripinfo_230" vType="type1" speedFactor="0.90" vaporized=""/>
    <tripinfo id="270" depart="275.00" departLane="54o_0" departPos="7.20" departPosLat="0.00" departSpeed="0.00" departDelay="0.00" arrival="363.00" arrivalLane="51i_2" arrivalPos="10.00" arrivalPosLat="0.00" arrivalSpeed="11.30" duration="88.00" routeLength="231.27" waitingTime="44.00" waitingCount="1" stopTime="0.00" timeLoss="72.39" rerouteNo="0" devices="tripinfo_270" vType="type5" speedFactor="1.02" vaporized=""/>
    <tripinfo id="280" depart="285.00" departLane="54o_0" departPos="10.00" departPosLat="0.00" departSpeed="0.00" departDelay="0.00" arrival="365.00" arrivalLane="51i_2" arrivalPos="10.00" arrivalPosLat="0.00" arrivalSpeed="11.72" duration="80.00" routeLength="228.47" waitingTime="41.00" waitingCount="1" stopTime="0.00" timeLoss="64.27" rerouteNo="0" devices="tripinfo_280" vType="type6" speedFactor="1.00" vaporized=""/>
    <tripinfo id="38" depart="239.00" departLane="51o_0" departPos="7.20" departPosLat="0.00" departSpeed="0.00" departDelay="199.00" arrival="367.00" arrivalLane="54i_0" arrivalPos="10.00" arrivalPosLat="0.00" arrivalSpeed="12.33" duration="128.00" routeLength="215.30" waitingTime="85.00" waitingCount="2" stopTime="0.00" timeLoss="113.12" rerouteNo="0" devices="tripinfo_38" vType="type5" speedFactor="1.05" vaporized=""/>
    <tripinfo id="39" depart="244.00" departLane="51o_0" departPos="7.20" departPosLat="0.00" departSpeed="0.00" departDelay="204.00" arrival="369.00" arrivalLane="54i_0" arrivalPos="10.00" arrivalPosLat="0.00" arrivalSpeed="11.65" duration="125.00" routeLength="215.30" waitingTime="83.00" waitingCount="2" stopTime="0.00" timeLoss="109.50" rerouteNo="0" devices="tripinfo_39" vType="type5" speedFactor="0.95" vaporized=""/>
    <tripinfo id="41" depart="249.00" departLane="51o_0" departPos="10.00" departPosLat="0.00" departSpeed="0.00" departDelay="204.00" arrival="372.00" arrivalLane="54i_0" arrivalPos="10.00" arrivalPosLat="0.00" arrivalSpeed="12.05" duration="123.00" routeLength="212.50" waitingTime="80.00" waitingCount="2" stopTime="0.00" timeLoss="107.84" rerouteNo="0" devices="tripinfo_41" vType="type6" speedFactor="1.00" vaporized=""/>
    <tripinfo id="42" depart="255.00" departLane="51o_0" departPos="10.00" departPosLat="0.00" departSpeed="0.00" departDelay="210.00" arrival="374.00" arrivalLane="54i_0" arrivalPos="10.00" arrivalPosLat="0.00" arrivalSpeed="11.88" duration="119.00" routeLength="212.50" waitingTime="82.00" waitingCount="2" stopTime="0.00" timeLoss="104.30" rerouteNo="0" devices="tripinfo_42" vType="type6" speedFactor="1.00" vaporized=""/>
    <tripinfo id="43" depart="302.00" departLane="51o_0" departPos="10.00" departPosLat="0.00" departSpeed="0.00" departDelay="257.00" arrival="377.00" arrivalLane="54i_0" arrivalPos="10.00" arrivalPosLat="0.00" arrivalSpeed="11.82" duration="75.00" routeLength="212.50" waitingTime="40.00" waitingCount="1" stopTime="0.00" timeLoss="59.83" rerouteNo="0" devices="tripinfo_43" vType="type6" speedFactor="1.00" vaporized=""/>