<?xml version="1.0" encoding="UTF-8"?>

<!-- generated on 2020年06月30日 星期二 01时36分01秒 by Eclipse SUMO GUI Version UNKNOWN
<configuration xmlns:xsi="http://www.w3.org/2001/XMLSchema-instance" xsi:noNamespaceSchemaLocation="http://sumo.dlr.de/xsd/sumoConfiguration.xsd">

    <input>
        <net-file value="data/single_intersection.net.xml"/>
        <route-files value="data/cross_9_1_30mins.rou.xml"/>
    </input>

    <output>
        <tripinfo-output value="tripinfo.xml"/>
    </output>

    <time>
        <begin value="0"/>
    </time>

    <processing>
        <lateral-resolution value="0.64"/>
        <waiting-time-memory value="60"/>
    </processing>

    <report>
        <verbose value="true"/>
        <no-step-log value="true"/>
    </report>

    <gui_only>
        <start value="true"/>
    </gui_only>

</configuration>
-->

<tripinfos xmlns:xsi="http://www.w3.org/2001/XMLSchema-instance" xsi:noNamespaceSchemaLocation="http://sumo.dlr.de/xsd/tripinfo_file.xsd">
    <tripinfo id="10" depart="15.00" departLane="54o_0" departPos="5.10" departPosLat="0.00" departSpeed="0.00" departDelay="0.00" arrival="189.00" arrivalLane="51i_2" arrivalPos="10.00" arrivalPosLat="0.00" arrivalSpeed="12.48" duration="174.00" routeLength="233.37" waitingTime="145.00" waitingCount="1" stopTime="0.00" timeLoss="159.18" rerouteNo="0" devices="tripinfo_10" vType="type3" speedFactor="1.09" vaporized=""/>
    <tripinfo id="20" depart="25.00" departLane="54o_0" departPos="5.10" departPosLat="0.00" departSpeed="0.00" departDelay="0.00" arrival="192.00" arrivalLane="51i_2" arrivalPos="10.00" arrivalPosLat="0.00" arrivalSpeed="11.89" duration="167.00" routeLength="233.37" waitingTime="139.00" waitingCount="1" stopTime="0.00" timeLoss="150.59" rerouteNo="0" devices="tripinfo_20" vType="type4" speedFactor="1.02" vaporized=""/>
    <tripinfo id="0" depart="5.00" departLane="51o_0" departPos="2.30" departPosLat="0.00" departSpeed="0.00" departDelay="0.00" arrival="195.00" arrivalLane="54i_0" arrivalPos="10.00" arrivalPosLat="0.00" arrivalSpeed="13.39" duration="190.00" routeLength="220.20" waitingTime="167.00" waitingCount="1" stopTime="0.00" timeLoss="175.41" rerouteNo="0" devices="tripinfo_0" vType="type2" speedFactor="1.06" vaporized=""/>
    <tripinfo id="30" depart="35.00" departLane="54o_0" departPos="7.20" departPosLat="0.00" departSpeed="0.00" departDelay="0.00" arrival="195.00" arrivalLane="51i_2" arrivalPos="10.00" arrivalPosLat="0.00" arrivalSpeed="11.63" duration="160.00" routeLength="231.27" waitingTime="128.00" waitingCount="1" stopTime="0.00" timeLoss="145.27" rerouteNo="0" devices="tripinfo_30" vType="type5" speedFactor="1.09" vaporized=""/>
    <tripinfo id="1" depart="6.00" departLane="51o_0" departPos="2.30" departPosLat="0.00" departSpeed="0.00" departDelay="1.00" arrival="199.00" arrivalLane="54i_0" arrivalPos="10.00" arrivalPosLat="0.00" arrivalSpeed="14.12" duration="193.00" routeLength="220.20" waitingTime="168.00" waitingCount="2" stopTime="0.00" timeLoss="175.79" rerouteNo="0" devices="tripinfo_1" vType="type2" speedFactor="0.94" vaporized=""/>
    <tripinfo id="2" depart="8.00" departLane="51o_0" departPos="2.30" departPosLat="0.00" departSpeed="0.00" departDelay="3.00" arrival="200.00" arrivalLane="54i_0" arrivalPos="10.00" arrivalPosLat="0.00" arrivalSpeed="14.00" duration="192.00" routeLength="220.20" waitingTime="166.00" waitingCount="1" stopTime="0.00" timeLoss="176.56" rerouteNo="0" devices="tripinfo_2" vType="type2" speedFactor="1.01" vaporized=""/>
    <tripinfo id="3" depart="10.00" departLane="51o_0" departPos="2.30" departPosLat="0.00" departSpeed="0.00" departDelay="5.00" arrival="202.00" arrivalLane="54i_0" arrivalPos="10.00" arrivalPosLat="0.00" arrivalSpeed="14.57" duration="192.00" routeLength="220.20" waitingTime="166.00" waitingCount="1" stopTime="0.00" timeLoss="177.20" rerouteNo="0" devices="tripinfo_3" vType="type2" speedFactor="1.08" vaporized=""/>
    <tripinfo id="4" depart="12.00" departLane="51o_0" departPos="2.30" departPosLat="0.00" departSpeed="0.00" departDelay="7.00" arrival="203.00" arrivalLane="54i_0" arrivalPos="10.00" arrivalPosLat="0.00" arrivalSpeed="14.08" duration="191.00" routeLength="220.20" waitingTime="164.00" waitingCount="1" stopTime="0.00" timeLoss="176.00" rerouteNo="0" devices="tripinfo_4" vType="type2" speedFactor="1.03" vaporized=""/>
    <tripinfo id="40" depart="45.00" departLane="54o_0" departPos="10.00" departPosLat="0.00" departSpeed="0.00" departDelay="0.00" arrival="225.00" arrivalLane="51i_2" arrivalPos="10.00" arrivalPosLat="0.00" arrivalSpeed="11.60" duration="180.00" routeLength="228.47" waitingTime="140.00" waitingCount="2" stopTime="0.00" timeLoss="163.95" rerouteNo="0" devices="tripinfo_40" vType="type6" speedFactor="1.00" vaporized=""/>
    <tripinfo id="60" depart="65.00" departLane="54o_0" departPos="2.30" departPosLat="0.00" departSpeed="0.00" departDelay="0.00" arrival="230.00" arrivalLane="51i_2" arrivalPos="10.00" arrivalPosLat="0.00" arrivalSpeed="12.21" duration="165.00" routeLength="236.17" waitingTime="126.00" waitingCount="3" stopTime="0.00" timeLoss="145.56" rerouteNo="0" devices="tripinfo_60" vType="type2" speedFactor="0.85" vaporized=""/>
    <tripinfo id="5" depart="14.00" departLane="51o_0" departPos="2.30" departPosLat="0.00" departSpeed="0.00" departDelay="4.00" arrival="231.00" arrivalLane="54i_0" arrivalPos="10.00" arrivalPosLat="0.00" arrivalSpeed="10.47" duration="217.00" routeLength="220.20" waitingTime="181.00" waitingCount="2" stopTime="0.00" timeLoss="197.99" rerouteNo="0" devices="tripinfo_5" vType="type2" speedFactor="0.83" vaporized=""/>
    <tripinfo id="6" depart="16.00" departLane="51o_0" departPos="2.30" departPosLat="0.00" departSpeed="0.00" departDelay="6.00" arrival="232.00" arrivalLane="54i_0" arrivalPos="10.00" arrivalPosLat="0.00" arrivalSpeed="12.28" duration="216.00" routeLength="220.20" waitingTime="180.00" waitingCount="2" stopTime="0.00" timeLoss="201.42" rerouteNo="0" devices="tripinfo_6" vType="type2" speedFactor="1.05" vaporized=""/>
    <tripinfo id="7" depart="18.00" departLane="51o_0" departPos="2.30" departPosLat="0.00" departSpeed="0.00" departDelay="8.00" arrival="234.00" arrivalLane="54i_0" arrivalPos="10.00" arrivalPosLat="0.00" arrivalSpeed="11.83" duration="216.00" routeLength="220.20" waitingTime="178.00" waitingCount="2" stopTime="0.00" timeLoss="198.59" rerouteNo="0" devices="tripinfo_7" vType="type2" speedFactor="0.89" vaporized=""/>
    <tripinfo id="8" depart="20.00" departLane="51o_0" departPos="2.30" departPosLat="0.00" departSpeed="0.00" departDelay="10.00" arrival="236.00" arrivalLane="54i_0" arrivalPos="10.00" arrivalPosLat="0.00" arrivalSpeed="12.66" duration="216.00" routeLength="220.20" waitingTime="177.00" waitingCount="2" stopTime="0.00" timeLoss="199.02" rerouteNo="0" devices="tripinfo_8" vType="type2" speedFactor="0.94" vaporized=""/>
    <tripinfo id="9" depart="21.00" departLane="51o_0" departPos="2.30" departPosLat="0.00" departSpeed="0.00" departDelay="11.00" arrival="238.00" arrivalLane="54i_1" arrivalPos="10.00" arrivalPosLat="0.00" arrivalSpeed="12.61" duration="217.00" routeLength="220.20" waitingTime="176.00" waitingCount="2" stopTime="0.00" timeLoss="198.86" rerouteNo="0" devices="tripinfo_9" vType="type2" speedFactor="0.86" vaporized=""/>
    <tripinfo id="70" depart="75.00" departLane="54o_0" departPos="5.10" departPosLat="0.00" departSpeed="0.00" departDelay="0.00" arrival="260.00" arrivalLane="51i_2" arrivalPos="10.00" arrivalPosLat="0.58" arrivalSpeed="12.93" duration="185.00" routeLength="233.37" waitingTime="137.00" waitingCount="3" stopTime="0.00" timeLoss="170.02" rerouteNo="0" devices="tripinfo_70" vType="type3" speedFactor="1.08" vaporized=""/>
    <tripinfo id="11" depart="24.00" departLane="51o_0" departPos="5.10" departPosLat="0.00" departSpeed="0.00" departDelay="9.00" arrival="261.00" arrivalLane="54i_0" arrivalPos="10.00" arrivalPosLat="0.00" arrivalSpeed="12.61" duration="237.00" routeLength="217.40" waitingTime="195.00" waitingCount="3" stopTime="0.00" timeLoss="221.84" rerouteNo="0" devices="tripinfo_11" vType="type3" speedFactor="1.03" vaporized=""/>
    <tripinfo id="120" depart="125.00" departLane="54o_0" departPos="2.30" departPosLat="0.00" departSpeed="0.00" departDelay="0.00" arrival="262.00" arrivalLane="51i_2" arrivalPos="10.00" arrivalPosLat="-1.00" arrivalSpeed="16.40" duration="137.00" routeLength="236.17" waitingTime="90.00" waitingCount="5" stopTime="0.00" timeLoss="120.71" rerouteNo="0" devices="tripinfo_120" vType="type2" speedFactor="1.07" vaporized=""/>
    <tripinfo id="12" depart="27.00" departLane="51o_0" departPos="5.10" departPosLat="0.00" departSpeed="0.00" departDelay="12.00" arrival="263.00" arrivalLane="54i_0" arrivalPos="10.00" arrivalPosLat="0.00" arrivalSpeed="13.69" duration="236.00" routeLength="217.40" waitingTime="192.00" waitingCount="3" stopTime="0.00" timeLoss="220.92" rerouteNo="0" devices="tripinfo_12" vType="type3" speedFactor="1.05" vaporized=""/>
    <tripinfo id="13" depart="30.00" departLane="51o_0" departPos="5.10" departPosLat="0.00" departSpeed="0.00" departDelay="15.00" arrival="264.00" arrivalLane="54i_0" arrivalPos="10.00" arrivalPosLat="0.00" arrivalSpeed="11.63" duration="234.00" routeLength="217.40" waitingTime="191.00" waitingCount="3" stopTime="0.00" timeLoss="220.34" rerouteNo="0" devices="tripinfo_13" vType="type3" speedFactor="1.12" vaporized=""/>
    <tripinfo id="50" depart="55.00" departLane="54o_0" departPos="1.70" departPosLat="0.00" departSpeed="0.00" departDelay="0.00" arrival="266.00" arrivalLane="51i_0" arrivalPos="10.00" arrivalPosLat="0.00" arrivalSpeed="5.02" duration="211.00" routeLength="236.77" waitingTime="150.00" waitingCount="3" stopTime="0.00" timeLoss="168.29" rerouteNo="0" devices="tripinfo_50" vType="type1" speedFactor="1.03" vaporized=""/>
    <tripinfo id="140" depart="145.00" departLane="54o_0" departPos="5.10" departPosLat="0.00" departSpeed="0.00" departDelay="0.00" arrival="288.00" arrivalLane="51i_2" arrivalPos="10.00" arrivalPosLat="0.00" arrivalSpeed="11.99" duration="143.00" routeLength="233.37" waitingTime="91.00" waitingCount="6" stopTime="0.00" timeLoss="124.97" rerouteNo="0" devices="tripinfo_140" vType="type4" speedFactor="0.94" vaporized=""/>
    <tripinfo id="80" depart="85.00" departLane="54o_0" departPos="5.10" departPosLat="0.00" departSpeed="0.00" departDelay="0.00" arrival="289.00" arrivalLane="51i_2" arrivalPos="10.00" arrivalPosLat="0.00" arrivalSpeed="12.11" duration="204.00" routeLength="233.37" waitingTime="149.00" waitingCount="7" stopTime="0.00" timeLoss="188.39" rerouteNo="0" devices="tripinfo_80" vType="type4" speedFactor="1.02" vaporized=""/>
    <tripinfo id="14" depart="33.00" departLane="51o_0" departPos="5.10" departPosLat="0.00" departSpeed="0.00" departDelay="18.00" arrival="292.00" arrivalLane="54i_0" arrivalPos="10.00" arrivalPosLat="0.00" arrivalSpeed="11.87" duration="259.00" routeLength="217.40" waitingTime="212.00" waitingCount="4" stopTime="0.00" timeLoss="243.74" rerouteNo="0" devices="tripinfo_14" vType="type3" speedFactor="0.99" vaporized=""/>
    <tripinfo id="90" depart="95.00" departLane="54o_0" departPos="7.20" departPosLat="0.00" departSpeed="0.00" departDelay="0.00" arrival="292.00" arrivalLane="51i_2" arrivalPos="10.00" arrivalPosLat="0.00" arrivalSpeed="12.38" duration="197.00" routeLength="231.27" waitingTime="137.00" waitingCount="6" stopTime="0.00" timeLoss="180.66" rerouteNo="0" devices="tripinfo_90" vType="type5" speedFactor="1.02" vaporized=""/>
    <tripinfo id="15" depart="36.00" departLane="51o_0" departPos="5.10" departPosLat="0.00" departSpeed="0.00" departDelay="16.00" arrival="295.00" arrivalLane="54i_0" arrivalPos="10.00" arrivalPosLat="0.00" arrivalSpeed="11.76" duration="259.00" routeLength="217.40" waitingTime="209.00" waitingCount="5" stopTime="0.00" timeLoss="242.69" rerouteNo="0" devices="tripinfo_15" vType="type3" speedFactor="0.93" vaporized=""/>
    <tripinfo id="16" depart="39.00" departLane="51o_0" departPos="5.10" departPosLat="0.00" departSpeed="0.00" departDelay="19.00" arrival="298.00" arrivalLane="54i_0" arrivalPos="10.00" arrivalPosLat="0.00" arrivalSpeed="12.08" duration="259.00" routeLength="217.40" waitingTime="203.00" waitingCount="4" stopTime="0.00" timeLoss="241.55" rerouteNo="0" devices="tripinfo_16" vType="type3" speedFactor="0.88" vaporized=""/>
    <tripinfo id="160" depart="165.00" departLane="54o_0" departPos="10.00" departPosLat="0.00" departSpeed="0.00" departDelay="0.00" arrival="321.00" arrivalLane="51i_2" arrivalPos="10.00" arrivalPosLat="0.00" arrivalSpeed="11.75" duration="156.00" routeLength="228.47" waitingTime="105.00" waitingCount="5" stopTime="0.00" timeLoss="139.85" rerouteNo="0" devices="tripinfo_160" vType="type6" speedFactor="1.00" vaporized=""/>
    <tripinfo id="100" depart="105.00" departLane="54o_0" departPos="10.00" departPosLat="0.00" departSpeed="0.00" departDelay="0.00" arrival="323.00" arrivalLane="51i_2" arrivalPos="10.00" arrivalPosLat="0.00" arrivalSpeed="11.17" duration="218.00" routeLength="228.47" waitingTime="152.00" waitingCount="9" stopTime="0.00" timeLoss="202.24" rerouteNo="0" devices="tripinfo_100" vType="type6" speedFactor="1.00" vaporized=""/>
    <tripinfo id="17" depart="42.00" departLane="51o_0" departPos="5.10" departPosLat="0.00" departSpeed="0.00" departDelay="22.00" arrival="325.00" arrivalLane="54i_0" arrivalPos="10.00" arrivalPosLat="0.00" arrivalSpeed="12.63" duration="283.00" routeLength="217.40" waitingTime="223.00" waitingCount="6" stopTime="0.00" timeLoss="266.71" rerouteNo="0" devices="tripinfo_17" vType="type3" speedFactor="0.94" vaporized=""/>
    <tripinfo id="18" depart="45.00" departLane="51o_0" departPos="5.10" departPosLat="0.00" departSpeed="0.00" departDelay="25.00" arrival="327.00" arrivalLane="54i_0" arrivalPos="10.00" arrivalPosLat="0.00" arrivalSpeed="11.35" duration="282.00" routeLength="217.40" waitingTime="220.00" waitingCount="6" stopTime="0.00" timeLoss="265.76" rerouteNo="0" devices="tripinfo_18" vType="type3" speedFactor="0.94" vaporized=""/>
    <tripinfo id="19" depart="206.00" departLane="51o_0" departPos="5.10" departPosLat="0.00" departSpeed="0.00" departDelay="186.00" arrival="329.00" arrivalLane="54i_0" arrivalPos="10.00" arrivalPosLat="0.00" arrivalSpeed="13.88" duration="123.00" routeLength="217.40" waitingTime="66.00" waitingCount="4" stopTime="0.00" timeLoss="109.65" rerouteNo="0" devices="tripinfo_19" vType="type3" speedFactor="1.16" vaporized=""/>
    <tripinfo id="180" depart="185.00" departLane="54o_0" departPos="2.30" departPosLat="0.00" departSpeed="0.00" departDelay="0.00" arrival="350.00" arrivalLane="51i_0" arrivalPos="10.00" arrivalPosLat="1.40" arrivalSpeed="15.94" duration="165.00" routeLength="236.17" waitingTime="120.00" waitingCount="9" stopTime="0.00" timeLoss="147.12" rerouteNo="0" devices="tripinfo_180" vType="type2" speedFactor="0.96" vaporized=""/>
    <tripinfo id="21" depart="209.00" departLane="51o_0" departPos="5.10" departPosLat="0.00" departSpeed="0.00" departDelay="184.00" arrival="357.00" arrivalLane="54i_0" arrivalPos="10.00" arrivalPosLat="0.00" arrivalSpeed="12.59" duration="148.00" routeLength="217.40" waitingTime="88.00" waitingCount="6" stopTime="0.00" timeLoss="132.76" rerouteNo="0" devices="tripinfo_21" vType="type4" speedFactor="1.01" vaporized=""/>
    <tripinfo id="130" depart="135.00" departLane="54o_0" departPos="5.10" departPosLat="0.00" departSpeed="0.00" departDelay="0.00" arrival="358.00" arrivalLane="51i_2" arrivalPos="10.00" arrivalPosLat="0.00" arrivalSpeed="11.13" duration="223.00" routeLength="233.37" waitingTime="130.00" waitingCount="17" stopTime="0.00" timeLoss="204.95" rerouteNo="0" devices="tripinfo_130" vType="type3" speedFactor="0.93" vaporized=""/>
    <tripinfo id="22" depart="212.00" departLane="51o_0" departPos="5.10" departPosLat="0.00" departSpeed="0.00" departDelay="187.00" arrival="359.00" arrivalLane="54i_0" arrivalPos="10.00" arrivalPosLat="0.00" arrivalSpeed="11.09" duration="147.00" routeLength="217.40" waitingTime="85.00" waitingCount="5" stopTime="0.00" timeLoss="131.08" rerouteNo="0" devices="tripinfo_22" vType="type4" speedFactor="0.98" vaporized=""/>
    <tripinfo id="23" depart="234.00" departLane="51o_0" departPos="5.10" departPosLat="0.00" departSpeed="0.00" departDelay="209.00" arrival="362.00" arrivalLane="54i_0" arrivalPos="10.00" arrivalPosLat="0.00" arrivalSpeed="11.83" duration="128.00" routeLength="217.40" waitingTime="69.00" waitingCount="4" stopTime="0.00" timeLoss="110.55" rerouteNo="0" devices="tripinfo_23" vType="type4" speedFactor="0.89" vaporized=""/>
    <tripinfo id="110" depart="115.00" departLane="54o_0" departPos="1.70" departPosLat="0.00" departSpeed="0.00" departDelay="0.00" arrival="364.00" arrivalLane="51i_0" arrivalPos="10.00" arrivalPosLat="0.00" arrivalSpeed="5.42" duration="249.00" routeLength="236.77" waitingTime="153.00" waitingCount="16" stopTime="0.00" timeLoss="205.51" rerouteNo="0" devices="tripinfo_110" vType="type1" speedFactor="1.02" vaporized=""/>
    <tripinfo id="240" depart="245.00" departLane="54o_0" departPos="2.30" departPosLat="0.00" departSpeed="0.00" departDelay="0.00" arrival="382.00" arrivalLane="51i_2" arrivalPos="10.00" arrivalPosLat="0.00" arrivalSpeed="14.60" duration="137.00" routeLength="236.17" waitingTime="78.00" waitingCount="7" stopTime="0.00" timeLoss="119.13" rerouteNo="0" devices="tripinfo_240" vType="type2" speedFactor="0.95" vaporized=""/>
    <tripinfo id="190" depart="195.00" departLane="54o_0" departPos="5.10" departPosLat="0.00" departSpeed="0.00" departDelay="0.00" arrival="385.00" arrivalLane="51i_2" arrivalPos="10.00" arrivalPosLat="0.00" arrivalSpeed="10.81" duration="190.00" routeLength="233.37" waitingTime="113.00" waitingCount="12" stopTime="0.00" timeLoss="171.09" rerouteNo="0" devices="tripinfo_190" vType="type3" speedFactor="0.88" vaporized=""/>
    <tripinfo id="220" depart="225.00" departLane="54o_0" departPos="10.00" departPosLat="0.00" departSpeed="0.00" departDelay="0.00" arrival="388.00" arrivalLane="51i_2" arrivalPos="10.00" arrivalPosLat="0.00" arrivalSpeed="11.39" duration="163.00" routeLength="228.47" waitingTime="104.00" waitingCount="8" stopTime="0.00" timeLoss="147.00" rerouteNo="0" devices="tripinfo_220" vType="type6" speedFactor="1.00" vaporized=""/>
    <tripinfo id="24" depart="238.00" departLane="51o_0" departPos="5.10" departPosLat="0.00" departSpeed="0.00" departDelay="213.00" arrival="391.00" arrivalLane="54i_0" arrivalPos="10.00" arrivalPosLat="0.00" arrivalSpeed="10.56" duration="153.00" routeLength="217.40" waitingTime="91.00" waitingCount="6" stopTime="0.00" timeLoss="134.23" rerouteNo="0" devices="tripinfo_24" vType="type4" speedFactor="0.83" vaporized=""/>
    <tripinfo id="25" depart="241.00" departLane="51o_0" departPos="5.10" departPosLat="0.00" departSpeed="0.00" departDelay="211.00" arrival="393.00" arrivalLane="54i_0" arrivalPos="10.00" arrivalPosLat="0.00" arrivalSpeed="10.34" duration="152.00" routeLength="217.40" waitingTime="88.00" waitingCount="5" stopTime="0.00" timeLoss="134.08" rerouteNo="0" devices="tripinfo_25" vType="type4" speedFactor="0.87" vaporized=""/>
    <tripinfo id="26" depart="265.00" departLane="51o_0" departPos="5.10" departPosLat="0.00" departSpeed="0.00" departDelay="235.00" arrival="395.00" arrivalLane="54i_0" arrivalPos="10.00" arrivalPosLat="0.00" arrivalSpeed="10.91" duration="130.00" routeLength="217.40" waitingTime="71.00" waitingCount="4" stopTime="0.00" timeLoss="112.88" rerouteNo="0" devices="tripinfo_26" vType="type4" speedFactor="0.92" vaporized=""/>
    <tripinfo id="250" depart="255.00" departLane="54o_0" departPos="5.10" departPosLat="0.00" departSpeed="0.00" departDelay="0.00" arrival="413.00" arrivalLane="51i_2" arrivalPos="10.00" arrivalPosLat="0.00" arrivalSpeed="11.82" duration="158.00" routeLength="233.37" waitingTime="106.00" waitingCount="8" stopTime="0.00" timeLoss="143.20" rerouteNo="0" devices="tripinfo_250" vType="type3" speedFactor="1.10" vaporized=""/>
    <tripinfo id="360" depart="365.00" departLane="54o_0" departPos="2.30" departPosLat="0.00" departSpeed="0.00" departDelay="0.00" arrival="417.00" arrivalLane="51i_2" arrivalPos="10.00" arrivalPosLat="0.00" arrivalSpeed="17.30" duration="52.00" routeLength="236.17" waitingTime="24.00" waitingCount="2" stopTime="0.00" timeLoss="36.02" rerouteNo="0" devices="tripinfo_360" vType="type2" speedFactor="1.07" vaporized=""/>
    <tripinfo id="27" depart="268.00" departLane="51o_0" departPos="5.10" departPosLat="0.00" departSpeed="0.00" departDelay="238.00" arrival="421.00" arrivalLane="54i_0" arrivalPos="10.00" arrivalPosLat="0.00" arrivalSpeed="12.03" duration="153.00" routeLength="217.40" waitingTime="94.00" waitingCount="5" stopTime="0.00" timeLoss="136.63" rerouteNo="0" devices="tripinfo_27" vType="type4" speedFactor="0.95" vaporized=""/>
    <tripinfo id="280" depart="294.00" departLane="54o_0" departPos="10.00" departPosLat="0.00" departSpeed="0.00" departDelay="9.00" arrival="421.00" arrivalLane="51i_2" arrivalPos="10.00" arrivalPosLat="0.00" arrivalSpeed="11.44" duration="127.00" routeLength="228.47" waitingTime="73.00" waitingCount="9" stopTime="0.00" timeLoss="111.32" rerouteNo="0" devices="tripinfo_280" vType="type6" speedFactor="1.00" vaporized=""/>
    <tripinfo id="28" depart="271.00" departLane="51o_0" departPos="5.10" departPosLat="0.00" departSpeed="0.00" departDelay="241.00" arrival="423.00" arrivalLane="54i_0" arrivalPos="10.00" arrivalPosLat="0.00" arrivalSpeed="14.09" duration="152.00" routeLength="217.40" waitingTime="93.00" waitingCount="5" stopTime="0.00" timeLoss="138.01" rerouteNo="0" devices="tripinfo_28" vType="type4" speedFactor="1.13" vaporized=""/>
    <tripinfo id="29" depart="297.00" departLane="51o_0" departPos="5.10" departPosLat="0.00" departSpeed="0.00" departDelay="267.00" arrival="425.00" arrivalLane="54i_0" arrivalPos="10.00" arrivalPosLat="0.00" arrivalSpeed="11.71" duration="128.00" routeLength="217.40" waitingTime="73.00" waitingCount="4" stopTime="0.00" timeLoss="111.64" rerouteNo="0" devices="tripinfo_29" vType="type4" speedFactor="0.93" vaporized=""/>
    <tripinfo id="300" depart="305.00" departLane="54o_0" departPos="2.30" departPosLat="0.00" departSpeed="0.00" departDelay="0.00" arrival="446.00" arrivalLane="51i_2" arrivalPos="10.00" arrivalPosLat="0.00" arrivalSpeed="12.63" duration="141.00" routeLength="236.17" waitingTime="105.00" waitingCount="6" stopTime="0.00" timeLoss="123.43" rerouteNo="0" devices="tripinfo_300" vType="type2" speedFactor="0.93" vaporized=""/>
    <tripinfo id="270" depart="275.00" departLane="54o_0" departPos="7.20" departPosLat="0.00" departSpeed="0.00" departDelay="0.00" arrival="450.00" arrivalLane="51i_2" arrivalPos="10.00" arrivalPosLat="0.00" arrivalSpeed="11.99" duration="175.00" routeLength="231.27" waitingTime="110.00" waitingCount="15" stopTime="0.00" timeLoss="158.76" rerouteNo="0" devices="tripinfo_270" vType="type5" speedFactor="1.02" vaporized=""/>
    <tripinfo id="380" depart="385.00" departLane="54o_0" departPos="5.10" departPosLat="0.00" departSpeed="0.00" departDelay="0.00" arrival="452.00" arrivalLane="51i_2" arrivalPos="10.00" arrivalPosLat="0.00" arrivalSpeed="13.38" duration="67.00" routeLength="233.37" waitingTime="32.00" waitingCount="3" stopTime="0.00" timeLoss="52.66" rerouteNo="0" devices="tripinfo_380" vType="type4" speedFactor="1.16" vaporized=""/>
    <tripinfo id="31" depart="301.00" departLane="51o_0" departPos="7.20" departPosLat="0.00" departSpeed="0.00" departDelay="266.00" arrival="455.00" arrivalLane="54i_0" arrivalPos="10.00" arrivalPosLat="0.00" arrivalSpeed="12.17" duration="154.00" routeLength="215.30" waitingTime="90.00" waitingCount="5" stopTime="0.00" timeLoss="139.90" rerouteNo="0" devices="tripinfo_31" vType="type5" speedFactor="1.08" vaporized=""/>
    <tripinfo id="32" depart="307.00" departLane="51o_0" departPos="7.20" departPosLat="0.00" departSpeed="0.00" departDelay="272.00" arrival="458.00" arrivalLane="54i_0" arrivalPos="10.00" arrivalPosLat="0.00" arrivalSpeed="11.71" duration="151.00" routeLength="215.30" waitingTime="88.00" waitingCount="5" stopTime="0.00" timeLoss="136.11" rerouteNo="0" devices="tripinfo_32" vType="type5" speedFactor="1.00" vaporized=""/>
    <tripinfo id="150" depart="155.00" departLane="54o_0" departPos="7.20" departPosLat="0.00" departSpeed="0.00" departDelay="0.00" arrival="481.00" arrivalLane="51i_2" arrivalPos="10.00" arrivalPosLat="0.00" arrivalSpeed="11.68" duration="326.00" routeLength="231.27" waitingTime="200.00" waitingCount="28" stopTime="0.00" timeLoss="309.78" rerouteNo="0" devices="tripinfo_150" vType="type5" speedFactor="1.02" vaporized=""/>
    <tripinfo id="200" depart="205.00" departLane="54o_0" departPos="5.10" departPosLat="0.00" departSpeed="0.00" departDelay="0.00" arrival="483.00" arrivalLane="51i_2" arrivalPos="10.00" arrivalPosLat="0.00" arrivalSpeed="13.14" duration="278.00" routeLength="233.37" waitingTime="186.00" waitingCount="18" stopTime="0.00" timeLoss="262.67" rerouteNo="0" devices="tripinfo_200" vType="type4" speedFactor="1.09" vaporized=""/>
    <tripinfo id="33" depart="331.00" departLane="51o_0" departPos="7.20" departPosLat="0.00" departSpeed="0.00" departDelay="296.00" arrival="487.00" arrivalLane="54i_0" arrivalPos="10.00" arrivalPosLat="0.00" arrivalSpeed="11.56" duration="156.00" routeLength="215.30" waitingTime="95.00" waitingCount="5" stopTime="0.00" timeLoss="142.08" rerouteNo="0" devices="tripinfo_33" vType="type5" speedFactor="1.09" vaporized=""/>
    <tripinfo id="210" depart="215.00" departLane="54o_0" departPos="7.20" departPosLat="0.00" departSpeed="0.00" departDelay="0.00" arrival="489.00" arrivalLane="51i_2" arrivalPos="10.00" arrivalPosLat="0.00" arrivalSpeed="12.19" duration="274.00" routeLength="231.27" waitingTime="169.00" waitingCount="18" stopTime="0.00" timeLoss="258.54" rerouteNo="0" devices="tripinfo_210" vType="type5" speedFactor="1.05" vaporized=""/>
    <tripinfo id="34" depart="336.00" departLane="51o_0" departPos="7.20" departPosLat="0.00" departSpeed="0.00" departDelay="301.00" arrival="490.00" arrivalLane="54i_0" arrivalPos="10.00" arrivalPosLat="0.00" arrivalSpeed="12.14" duration="154.00" routeLength="215.30" waitingTime="92.00" waitingCount="5" stopTime="0.00" timeLoss="138.45" rerouteNo="0" devices="tripinfo_34" vType="type5" speedFactor="1.00" vaporized=""/>
    <tripinfo id="170" depart="175.00" departLane="54o_0" departPos="1.70" departPosLat="0.00" departSpeed="0.00" departDelay="0.00" arrival="494.00" arrivalLane="51i_0" arrivalPos="10.00" arrivalPosLat="0.00" arrivalSpeed="5.41" duration="319.00" routeLength="236.77" waitingTime="189.00" waitingCount="25" stopTime="0.00" timeLoss="275.68" rerouteNo="0" devices="tripinfo_170" vType="type1" speedFactor="1.11" vaporized=""/>
    <tripinfo id="440" depart="445.00" departLane="54o_0" departPos="5.10" departPosLat="0.00" departSpeed="0.00" departDelay="0.00" arrival="509.00" arrivalLane="51i_2" arrivalPos="10.00" arrivalPosLat="0.00" arrivalSpeed="11.96" duration="64.00" routeLength="233.37" waitingTime="31.00" waitingCount="2" stopTime="0.00" timeLoss="49.26" rerouteNo="0" devices="tripinfo_440" vType="type4" speedFactor="1.11" vaporized=""/>
    <tripinfo id="310" depart="315.00" departLane="54o_0" departPos="5.10" departPosLat="0.00" departSpeed="0.00" departDelay="0.00" arrival="516.00" arrivalLane="51i_2" arrivalPos="10.00" arrivalPosLat="0.00" arrivalSpeed="9.75" duration="201.00" routeLength="233.37" waitingTime="130.00" waitingCount="7" stopTime="0.00" timeLoss="179.50" rerouteNo="0" devices="tripinfo_310" vType="type3" speedFactor="0.75" vaporized=""/>
    <tripinfo id="35" depart="360.00" departLane="51o_0" departPos="7.20" departPosLat="0.00" departSpeed="0.00" departDelay="320.00" arrival="519.00" arrivalLane="54i_0" arrivalPos="10.00" arrivalPosLat="0.00" arrivalSpeed="11.73" duration="159.00" routeLength="215.30" waitingTime="94.00" waitingCount="5" stopTime="0.00" timeLoss="143.92" rerouteNo="0" devices="tripinfo_35" vType="type5" speedFactor="1.01" vaporized=""/>
    <tripinfo id="260" depart="265.00" departLane="54o_0" departPos="5.10" departPosLat="0.00" departSpeed="0.00" departDelay="0.00" arrival="519.00" arrivalLane="51i_2" arrivalPos="10.00" arrivalPosLat="0.00" arrivalSpeed="11.36" duration="254.00" routeLength="233.37" waitingTime="149.00" waitingCount="17" stopTime="0.00" timeLoss="237.26" rerouteNo="0" devices="tripinfo_260" vType="type4" speedFactor="1.00" vaporized=""/>
    <tripinfo id="36" depart="365.00" departLane="51o_0" departPos="7.20" departPosLat="0.00" departSpeed="0.00" departDelay="325.00" arrival="522.00" arrivalLane="54i_0" arrivalPos="10.00" arrivalPosLat="0.00" arrivalSpeed="11.54" duration="157.00" routeLength="215.30" waitingTime="93.00" waitingCount="5" stopTime="0.00" timeLoss="141.26" rerouteNo="0" devices="tripinfo_36" vType="type5" speedFactor="0.99" vaporized=""/>
    <tripinfo id="230" depart="235.00" departLane="54o_0" departPos="1.70" departPosLat="0.00" departSpeed="0.00" departDelay="0.00" arrival="527.00" arrivalLane="51i_0" arrivalPos="10.00" arrivalPosLat="0.00" arrivalSpeed="5.09" duration="292.00" routeLength="236.77" waitingTime="168.00" waitingCount="14" stopTime="0.00" timeLoss="249.05" rerouteNo="0" devices="tripinfo_230" vType="type1" speedFactor="0.90" vaporized=""/>
    <tripinfo id="320" depart="325.00" departLane="54o_0" departPos="5.10" departPosLat="0.00" departSpeed="0.00" departDelay="0.00" arrival="543.00" arrivalLane="51i_2" arrivalPos="10.00" arrivalPosLat="0.00" arrivalSpeed="12.46" duration="218.00" routeLength="233.37" waitingTime="131.00" waitingCount="10" stopTime="0.00" timeLoss="200.81" rerouteNo="0" devices="tripinfo_320" vType="type4" speedFactor="0.97" vaporized=""/>